49830299
  -OEChem-03202504192D

 40 42  0     0  0  0  0  0  0999 V2000
    3.9639    1.6863    0.0000 Cl  0  0  0  0  0  0  0  0  0  0  0  0
    9.8349    2.9236    0.0000 S   0  0  0  0  0  0  0  0  0  0  0  0
    9.6287    3.9021    0.0000 O   0  0  0  0  0  0  0  0  0  0  0  0
   10.0412    1.9451    0.0000 O   0  0  0  0  0  0  0  0  0  0  0  0
    7.2566    0.6101    0.0000 N   0  0  0  0  0  0  0  0  0  0  0  0
    4.6783   -3.3128    0.0000 N   0  0  0  0  0  0  0  0  0  0  0  0
    8.8564    2.7174    0.0000 N   0  0  0  0  0  0  0  0  0  0  0  0
    5.6103    1.1482    0.0000 N   0  0  0  0  0  0  0  0  0  0  0  0
    2.8660   -3.5081    0.0000 N   0  0  0  0  0  0  0  0  0  0  0  0
    4.6783   -1.7033    0.0000 C   0  0  0  0  0  0  0  0  0  0  0  0
    3.7320   -2.0081    0.0000 C   0  0  0  0  0  0  0  0  0  0  0  0
    4.9889   -0.7528    0.0000 C   0  0  0  0  0  0  0  0  0  0  0  0
    7.5673    1.5607    0.0000 C   0  0  0  0  0  0  0  0  0  0  0  0
    8.5458    1.7669    0.0000 C   0  0  0  0  0  0  0  0  0  0  0  0
    3.7320   -3.0081    0.0000 C   0  0  0  0  0  0  0  0  0  0  0  0
    5.2619   -2.5081    0.0000 C   0  0  0  0  0  0  0  0  0  0  0  0
    6.2781    0.4039    0.0000 C   0  0  0  0  0  0  0  0  0  0  0  0
    5.9674   -0.5466    0.0000 C   0  0  0  0  0  0  0  0  0  0  0  0
    4.3211   -0.0085    0.0000 C   0  0  0  0  0  0  0  0  0  0  0  0
    2.8660   -1.5081    0.0000 C   0  0  0  0  0  0  0  0  0  0  0  0
    4.6318    0.9420    0.0000 C   0  0  0  0  0  0  0  0  0  0  0  0
    2.0000   -2.0081    0.0000 C   0  0  0  0  0  0  0  0  0  0  0  0
   10.8134    3.1298    0.0000 C   0  0  0  0  0  0  0  0  0  0  0  0
    2.0000   -3.0081    0.0000 C   0  0  0  0  0  0  0  0  0  0  0  0
    7.5467    2.1803    0.0000 H   0  0  0  0  0  0  0  0  0  0  0  0
    6.9534    1.6480    0.0000 H   0  0  0  0  0  0  0  0  0  0  0  0
    8.5663    1.1472    0.0000 H   0  0  0  0  0  0  0  0  0  0  0  0
    9.1596    1.6795    0.0000 H   0  0  0  0  0  0  0  0  0  0  0  0
    5.8819   -2.5081    0.0000 H   0  0  0  0  0  0  0  0  0  0  0  0
    6.3815   -1.0081    0.0000 H   0  0  0  0  0  0  0  0  0  0  0  0
    7.6707    0.1487    0.0000 H   0  0  0  0  0  0  0  0  0  0  0  0
    4.8709   -3.9021    0.0000 H   0  0  0  0  0  0  0  0  0  0  0  0
    8.4424    3.1789    0.0000 H   0  0  0  0  0  0  0  0  0  0  0  0
    3.7144   -0.1364    0.0000 H   0  0  0  0  0  0  0  0  0  0  0  0
    2.8660   -0.8881    0.0000 H   0  0  0  0  0  0  0  0  0  0  0  0
    1.4631   -1.6981    0.0000 H   0  0  0  0  0  0  0  0  0  0  0  0
   10.9413    2.5232    0.0000 H   0  0  0  0  0  0  0  0  0  0  0  0
   11.4201    3.2577    0.0000 H   0  0  0  0  0  0  0  0  0  0  0  0
   10.6856    3.7365    0.0000 H   0  0  0  0  0  0  0  0  0  0  0  0
    1.4631   -3.3181    0.0000 H   0  0  0  0  0  0  0  0  0  0  0  0
  1 21  1  0  0  0  0
  2  3  2  0  0  0  0
  2  4  2  0  0  0  0
  2  7  1  0  0  0  0
  2 23  1  0  0  0  0
  5 13  1  0  0  0  0
  5 17  1  0  0  0  0
  5 31  1  0  0  0  0
  6 15  1  0  0  0  0
  6 16  1  0  0  0  0
  6 32  1  0  0  0  0
  7 14  1  0  0  0  0
  7 33  1  0  0  0  0
  8 17  2  0  0  0  0
  8 21  1  0  0  0  0
  9 15  1  0  0  0  0
  9 24  2  0  0  0  0
 10 11  1  0  0  0  0
 10 12  1  0  0  0  0
 10 16  2  0  0  0  0
 11 15  2  0  0  0  0
 11 20  1  0  0  0  0
 12 18  2  0  0  0  0
 12 19  1  0  0  0  0
 13 14  1  0  0  0  0
 13 25  1  0  0  0  0
 13 26  1  0  0  0  0
 14 27  1  0  0  0  0
 14 28  1  0  0  0  0
 16 29  1  0  0  0  0
 17 18  1  0  0  0  0
 18 30  1  0  0  0  0
 19 21  2  0  0  0  0
 19 34  1  0  0  0  0
 20 22  2  0  0  0  0
 20 35  1  0  0  0  0
 22 24  1  0  0  0  0
 22 36  1  0  0  0  0
 23 37  1  0  0  0  0
 23 38  1  0  0  0  0
 23 39  1  0  0  0  0
 24 40  1  0  0  0  0
M  END
> <PUBCHEM_COMPOUND_CID>
49830299

> <PUBCHEM_COMPOUND_CANONICALIZED>
1

> <PUBCHEM_CACTVS_COMPLEXITY>
514

> <PUBCHEM_CACTVS_HBOND_ACCEPTOR>
6

> <PUBCHEM_CACTVS_HBOND_DONOR>
3

> <PUBCHEM_CACTVS_ROTATABLE_BOND>
6

> <PUBCHEM_CACTVS_SUBSKEYS>
AAADceBzsABEAAAAAAAAAAAAAAAAAWAAAAAsWAAAAAAAAFgB/gAAHAYQQAAADALBGyS/sN7JkAKgAjJnZHCCgCmxB6AJ2aA4ZpiIaOLBm5GUIAhokALIyCcQgMAOgAAAAAAAAAAAAAAAAAAAAAAAAAAAAA==

> <PUBCHEM_IUPAC_OPENEYE_NAME>
N-[2-[[6-chloro-4-(1H-pyrrolo[2,3-b]pyridin-3-yl)-2-pyridyl]amino]ethyl]methanesulfonamide

> <PUBCHEM_IUPAC_CAS_NAME>
N-[2-[[6-chloro-4-(1H-pyrrolo[2,3-b]pyridin-3-yl)-2-pyridinyl]amino]ethyl]methanesulfonamide

> <PUBCHEM_IUPAC_NAME_MARKUP>
<I>N</I>-[2-[[6-chloro-4-(1<I>H</I>-pyrrolo[2,3-b]pyridin-3-yl)pyridin-2-yl]amino]ethyl]methanesulfonamide

> <PUBCHEM_IUPAC_NAME>
N-[2-[[6-chloro-4-(1H-pyrrolo[2,3-b]pyridin-3-yl)pyridin-2-yl]amino]ethyl]methanesulfonamide

> <PUBCHEM_IUPAC_SYSTEMATIC_NAME>
N-[2-[[6-chloranyl-4-(1H-pyrrolo[2,3-b]pyridin-3-yl)pyridin-2-yl]amino]ethyl]methanesulfonamide

> <PUBCHEM_IUPAC_TRADITIONAL_NAME>
N-[2-[[6-chloro-4-(1H-pyrrolo[2,3-b]pyridin-3-yl)-2-pyridyl]amino]ethyl]methanesulfonamide

> <PUBCHEM_IUPAC_INCHI>
InChI=1S/C15H16ClN5O2S/c1-24(22,23)20-6-5-17-14-8-10(7-13(16)21-14)12-9-19-15-11(12)3-2-4-18-15/h2-4,7-9,20H,5-6H2,1H3,(H,17,21)(H,18,19)

> <PUBCHEM_IUPAC_INCHIKEY>
RFBPWKMQWSIPEO-UHFFFAOYSA-N

> <PUBCHEM_XLOGP3_AA>
2.3

> <PUBCHEM_EXACT_MASS>
365.0713236

> <PUBCHEM_MOLECULAR_FORMULA>
C15H16ClN5O2S

> <PUBCHEM_MOLECULAR_WEIGHT>
365.8

> <PUBCHEM_SMILES>
CS(=O)(=O)NCCNC1=NC(=CC(=C1)C2=CNC3=C2C=CC=N3)Cl

> <PUBCHEM_OPENEYE_CAN_SMILES>
CS(=O)(=O)NCCNC1=NC(=CC(=C1)C2=CNC3=C2C=CC=N3)Cl

> <PUBCHEM_OPENEYE_ISO_SMILES>
CS(=O)(=O)NCCNC1=NC(=CC(=C1)C2=CNC3=C2C=CC=N3)Cl

> <PUBCHEM_CACTVS_TPSA>
108

> <PUBCHEM_MONOISOTOPIC_WEIGHT>
365.0713236

> <PUBCHEM_TOTAL_CHARGE>
0

> <PUBCHEM_HEAVY_ATOM_COUNT>
24

> <PUBCHEM_ATOM_DEF_STEREO_COUNT>
0

> <PUBCHEM_ATOM_UDEF_STEREO_COUNT>
0

> <PUBCHEM_BOND_DEF_STEREO_COUNT>
0

> <PUBCHEM_BOND_UDEF_STEREO_COUNT>
0

> <PUBCHEM_ISOTOPIC_ATOM_COUNT>
0

> <PUBCHEM_COMPONENT_COUNT>
1

> <PUBCHEM_CACTVS_TAUTO_COUNT>
-1

> <PUBCHEM_COORDINATE_TYPE>
1
5
255

> <PUBCHEM_BONDANNOTATIONS>
10  11  8
10  16  8
11  15  8
11  20  8
12  18  8
12  19  8
17  18  8
19  21  8
20  22  8
22  24  8
6  15  8
6  16  8
8  17  8
8  21  8
9  15  8
9  24  8

$$$$
