23647258
  -OEChem-03202505012D

 40 42  0     0  0  0  0  0  0999 V2000
   12.0632   -0.2500    0.0000 F   0  0  0  0  0  0  0  0  0  0  0  0
    2.5369   -1.7500    0.0000 O   0  0  0  0  0  0  0  0  0  0  0  0
    4.2690   -1.7500    0.0000 O   0  0  0  0  0  0  0  0  0  0  0  0
    5.1350   -0.2500    0.0000 N   0  0  0  0  0  0  0  0  0  0  0  0
    8.5991   -0.2500    0.0000 N   0  0  0  0  0  0  0  0  0  0  0  0
    6.8671   -0.2500    0.0000 N   0  0  0  0  0  0  0  0  0  0  0  0
    7.7331    1.2500    0.0000 N   0  0  0  0  0  0  0  0  0  0  0  0
    4.2690    0.2500    0.0000 C   0  0  0  0  0  0  0  0  0  0  0  0
    9.4651    0.2500    0.0000 C   0  0  0  0  0  0  0  0  0  0  0  0
   11.1972    1.2500    0.0000 C   0  0  0  0  0  0  0  0  0  0  0  0
    3.4030   -0.2500    0.0000 C   0  0  0  0  0  0  0  0  0  0  0  0
    6.0010    0.2500    0.0000 C   0  0  0  0  0  0  0  0  0  0  0  0
   10.3312   -0.2500    0.0000 C   0  0  0  0  0  0  0  0  0  0  0  0
    9.4651    1.2500    0.0000 C   0  0  0  0  0  0  0  0  0  0  0  0
   11.1972    0.2500    0.0000 C   0  0  0  0  0  0  0  0  0  0  0  0
   10.3312    1.7500    0.0000 C   0  0  0  0  0  0  0  0  0  0  0  0
    7.7331    0.2500    0.0000 C   0  0  0  0  0  0  0  0  0  0  0  0
    4.2690    1.2500    0.0000 C   0  0  0  0  0  0  0  0  0  0  0  0
    2.5369    0.2500    0.0000 C   0  0  0  0  0  0  0  0  0  0  0  0
    6.0010    1.2500    0.0000 C   0  0  0  0  0  0  0  0  0  0  0  0
    3.4030    1.7500    0.0000 C   0  0  0  0  0  0  0  0  0  0  0  0
   12.0632    1.7500    0.0000 C   0  0  0  0  0  0  0  0  0  0  0  0
    2.5369    1.2500    0.0000 C   0  0  0  0  0  0  0  0  0  0  0  0
    6.8671    1.7500    0.0000 C   0  0  0  0  0  0  0  0  0  0  0  0
    3.4030   -1.2500    0.0000 C   0  0  0  0  0  0  0  0  0  0  0  0
    5.1350   -0.8700    0.0000 H   0  0  0  0  0  0  0  0  0  0  0  0
   10.3312   -0.8700    0.0000 H   0  0  0  0  0  0  0  0  0  0  0  0
    8.9282    1.5600    0.0000 H   0  0  0  0  0  0  0  0  0  0  0  0
    8.5991   -0.8700    0.0000 H   0  0  0  0  0  0  0  0  0  0  0  0
   10.3312    2.3700    0.0000 H   0  0  0  0  0  0  0  0  0  0  0  0
    4.8059    1.5600    0.0000 H   0  0  0  0  0  0  0  0  0  0  0  0
    2.0000   -0.0600    0.0000 H   0  0  0  0  0  0  0  0  0  0  0  0
    5.4641    1.5600    0.0000 H   0  0  0  0  0  0  0  0  0  0  0  0
    3.4030    2.3700    0.0000 H   0  0  0  0  0  0  0  0  0  0  0  0
   12.3732    1.2131    0.0000 H   0  0  0  0  0  0  0  0  0  0  0  0
   12.6002    2.0600    0.0000 H   0  0  0  0  0  0  0  0  0  0  0  0
   11.7532    2.2869    0.0000 H   0  0  0  0  0  0  0  0  0  0  0  0
    2.0000    1.5600    0.0000 H   0  0  0  0  0  0  0  0  0  0  0  0
    6.8671    2.3700    0.0000 H   0  0  0  0  0  0  0  0  0  0  0  0
    2.0000   -1.4400    0.0000 H   0  0  0  0  0  0  0  0  0  0  0  0
  1 15  1  0  0  0  0
  2 25  1  0  0  0  0
  2 40  1  0  0  0  0
  3 25  2  0  0  0  0
  4  8  1  0  0  0  0
  4 12  1  0  0  0  0
  4 26  1  0  0  0  0
  5  9  1  0  0  0  0
  5 17  1  0  0  0  0
  5 29  1  0  0  0  0
  6 12  2  0  0  0  0
  6 17  1  0  0  0  0
  7 17  2  0  0  0  0
  7 24  1  0  0  0  0
  8 11  1  0  0  0  0
  8 18  2  0  0  0  0
  9 13  2  0  0  0  0
  9 14  1  0  0  0  0
 10 15  2  0  0  0  0
 10 16  1  0  0  0  0
 10 22  1  0  0  0  0
 11 19  2  0  0  0  0
 11 25  1  0  0  0  0
 12 20  1  0  0  0  0
 13 15  1  0  0  0  0
 13 27  1  0  0  0  0
 14 16  2  0  0  0  0
 14 28  1  0  0  0  0
 16 30  1  0  0  0  0
 18 21  1  0  0  0  0
 18 31  1  0  0  0  0
 19 23  1  0  0  0  0
 19 32  1  0  0  0  0
 20 24  2  0  0  0  0
 20 33  1  0  0  0  0
 21 23  2  0  0  0  0
 21 34  1  0  0  0  0
 22 35  1  0  0  0  0
 22 36  1  0  0  0  0
 22 37  1  0  0  0  0
 23 38  1  0  0  0  0
 24 39  1  0  0  0  0
M  END
> <PUBCHEM_COMPOUND_CID>
23647258

> <PUBCHEM_COMPOUND_CANONICALIZED>
1

> <PUBCHEM_CACTVS_COMPLEXITY>
453

> <PUBCHEM_CACTVS_HBOND_ACCEPTOR>
7

> <PUBCHEM_CACTVS_HBOND_DONOR>
3

> <PUBCHEM_CACTVS_ROTATABLE_BOND>
5

> <PUBCHEM_CACTVS_SUBSKEYS>
AAADccB7sQAAAAAAAAAAAAAAAAAAAAAAAAA8YIAAAAAAAAAB0AAAHwAQCAAADAjBmgw/+JbIEgCoAjb3bACCgCk1AqAJ2CE4bNiILvrA3dGEdYhu0API2eeYyCCOCAAAAAACAAAQAAAAAAQAAAAAAAAAAA==

> <PUBCHEM_IUPAC_OPENEYE_NAME>
2-[[2-(3-fluoro-4-methyl-anilino)pyrimidin-4-yl]amino]benzoic acid

> <PUBCHEM_IUPAC_CAS_NAME>
2-[[2-(3-fluoro-4-methylanilino)-4-pyrimidinyl]amino]benzoic acid

> <PUBCHEM_IUPAC_NAME_MARKUP>
2-[[2-(3-fluoro-4-methylanilino)pyrimidin-4-yl]amino]benzoic acid

> <PUBCHEM_IUPAC_NAME>
2-[[2-(3-fluoro-4-methylanilino)pyrimidin-4-yl]amino]benzoic acid

> <PUBCHEM_IUPAC_SYSTEMATIC_NAME>
2-[[2-[(3-fluoranyl-4-methyl-phenyl)amino]pyrimidin-4-yl]amino]benzoic acid

> <PUBCHEM_IUPAC_TRADITIONAL_NAME>
2-[[2-(3-fluoro-4-methyl-anilino)pyrimidin-4-yl]amino]benzoic acid

> <PUBCHEM_IUPAC_INCHI>
InChI=1S/C18H15FN4O2/c1-11-6-7-12(10-14(11)19)21-18-20-9-8-16(23-18)22-15-5-3-2-4-13(15)17(24)25/h2-10H,1H3,(H,24,25)(H2,20,21,22,23)

> <PUBCHEM_IUPAC_INCHIKEY>
BQWUBCRDJPIJAT-UHFFFAOYSA-N

> <PUBCHEM_XLOGP3_AA>
4.5

> <PUBCHEM_EXACT_MASS>
338.11790390

> <PUBCHEM_MOLECULAR_FORMULA>
C18H15FN4O2

> <PUBCHEM_MOLECULAR_WEIGHT>
338.3

> <PUBCHEM_SMILES>
CC1=C(C=C(C=C1)NC2=NC=CC(=N2)NC3=CC=CC=C3C(=O)O)F

> <PUBCHEM_OPENEYE_CAN_SMILES>
CC1=C(C=C(C=C1)NC2=NC=CC(=N2)NC3=CC=CC=C3C(=O)O)F

> <PUBCHEM_OPENEYE_ISO_SMILES>
CC1=C(C=C(C=C1)NC2=NC=CC(=N2)NC3=CC=CC=C3C(=O)O)F

> <PUBCHEM_CACTVS_TPSA>
87.1

> <PUBCHEM_MONOISOTOPIC_WEIGHT>
338.11790390

> <PUBCHEM_TOTAL_CHARGE>
0

> <PUBCHEM_HEAVY_ATOM_COUNT>
25

> <PUBCHEM_ATOM_DEF_STEREO_COUNT>
0

> <PUBCHEM_ATOM_UDEF_STEREO_COUNT>
0

> <PUBCHEM_BOND_DEF_STEREO_COUNT>
0

> <PUBCHEM_BOND_UDEF_STEREO_COUNT>
0

> <PUBCHEM_ISOTOPIC_ATOM_COUNT>
0

> <PUBCHEM_COMPONENT_COUNT>
1

> <PUBCHEM_CACTVS_TAUTO_COUNT>
-1

> <PUBCHEM_COORDINATE_TYPE>
1
5
255

> <PUBCHEM_BONDANNOTATIONS>
10  15  8
10  16  8
11  19  8
12  20  8
13  15  8
14  16  8
18  21  8
19  23  8
20  24  8
21  23  8
6  12  8
6  17  8
7  17  8
7  24  8
8  11  8
8  18  8
9  13  8
9  14  8

$$$$
