44143344
  -OEChem-03202501492D

 50 53  0     0  0  0  0  0  0999 V2000
    3.7320    3.0173    0.0000 Cl  0  0  0  0  0  0  0  0  0  0  0  0
    2.0000    2.0173    0.0000 F   0  0  0  0  0  0  0  0  0  0  0  0
   13.3301   -2.4418    0.0000 O   0  0  0  0  0  0  0  0  0  0  0  0
   11.5942   -1.4485    0.0000 N   0  0  0  0  0  0  0  0  0  0  0  0
    8.9942   -0.9585    0.0000 N   0  0  0  0  0  0  0  0  0  0  0  0
    8.1301   -2.5035    0.0000 N   0  0  0  0  0  0  0  0  0  0  0  0
    5.4641    0.0173    0.0000 N   0  0  0  0  0  0  0  0  0  0  0  0
    5.4641   -2.9827    0.0000 N   0  0  0  0  0  0  0  0  0  0  0  0
    2.8660   -0.4827    0.0000 N   0  0  0  0  0  0  0  0  0  0  0  0
   12.4583   -0.9452    0.0000 C   0  0  0  0  0  0  0  0  0  0  0  0
   11.5981   -2.4485    0.0000 C   0  0  0  0  0  0  0  0  0  0  0  0
   10.7263   -0.9518    0.0000 C   0  0  0  0  0  0  0  0  0  0  0  0
   13.3263   -1.4418    0.0000 C   0  0  0  0  0  0  0  0  0  0  0  0
   12.4660   -2.9452    0.0000 C   0  0  0  0  0  0  0  0  0  0  0  0
    9.8622   -1.4552    0.0000 C   0  0  0  0  0  0  0  0  0  0  0  0
    8.1301   -1.4619    0.0000 C   0  0  0  0  0  0  0  0  0  0  0  0
    6.3301   -1.4827    0.0000 C   0  0  0  0  0  0  0  0  0  0  0  0
    7.2241   -0.9480    0.0000 C   0  0  0  0  0  0  0  0  0  0  0  0
    5.4641   -0.9827    0.0000 C   0  0  0  0  0  0  0  0  0  0  0  0
    6.3301   -2.4827    0.0000 C   0  0  0  0  0  0  0  0  0  0  0  0
    7.2241   -3.0173    0.0000 C   0  0  0  0  0  0  0  0  0  0  0  0
    4.5981   -1.4827    0.0000 C   0  0  0  0  0  0  0  0  0  0  0  0
    4.5981   -2.4827    0.0000 C   0  0  0  0  0  0  0  0  0  0  0  0
    4.5981    0.5173    0.0000 C   0  0  0  0  0  0  0  0  0  0  0  0
    4.5981    1.5173    0.0000 C   0  0  0  0  0  0  0  0  0  0  0  0
    3.7320    0.0173    0.0000 C   0  0  0  0  0  0  0  0  0  0  0  0
    3.7320   -0.9827    0.0000 C   0  0  0  0  0  0  0  0  0  0  0  0
    3.7320    2.0173    0.0000 C   0  0  0  0  0  0  0  0  0  0  0  0
    2.8660    0.5173    0.0000 C   0  0  0  0  0  0  0  0  0  0  0  0
    2.8660    1.5173    0.0000 C   0  0  0  0  0  0  0  0  0  0  0  0
   12.8550   -0.4687    0.0000 H   0  0  0  0  0  0  0  0  0  0  0  0
   12.0579   -0.4718    0.0000 H   0  0  0  0  0  0  0  0  0  0  0  0
   10.9871   -2.3432    0.0000 H   0  0  0  0  0  0  0  0  0  0  0  0
   11.3883   -3.0319    0.0000 H   0  0  0  0  0  0  0  0  0  0  0  0
   11.1230   -0.4754    0.0000 H   0  0  0  0  0  0  0  0  0  0  0  0
   10.3259   -0.4784    0.0000 H   0  0  0  0  0  0  0  0  0  0  0  0
   13.9372   -1.5471    0.0000 H   0  0  0  0  0  0  0  0  0  0  0  0
   13.5361   -0.8584    0.0000 H   0  0  0  0  0  0  0  0  0  0  0  0
   12.0693   -3.4216    0.0000 H   0  0  0  0  0  0  0  0  0  0  0  0
   12.8664   -3.4186    0.0000 H   0  0  0  0  0  0  0  0  0  0  0  0
    9.4655   -1.9317    0.0000 H   0  0  0  0  0  0  0  0  0  0  0  0
   10.2625   -1.9286    0.0000 H   0  0  0  0  0  0  0  0  0  0  0  0
    8.9918   -0.3385    0.0000 H   0  0  0  0  0  0  0  0  0  0  0  0
    7.2169   -0.3280    0.0000 H   0  0  0  0  0  0  0  0  0  0  0  0
    7.2169   -3.6373    0.0000 H   0  0  0  0  0  0  0  0  0  0  0  0
    6.0010    0.3273    0.0000 H   0  0  0  0  0  0  0  0  0  0  0  0
    4.0611   -2.7927    0.0000 H   0  0  0  0  0  0  0  0  0  0  0  0
    5.1350    1.8273    0.0000 H   0  0  0  0  0  0  0  0  0  0  0  0
    3.7320   -0.6027    0.0000 H   0  0  0  0  0  0  0  0  0  0  0  0
    2.3291    0.2073    0.0000 H   0  0  0  0  0  0  0  0  0  0  0  0
  1 28  1  0  0  0  0
  2 30  1  0  0  0  0
  3 13  1  0  0  0  0
  3 14  1  0  0  0  0
  4 10  1  0  0  0  0
  4 11  1  0  0  0  0
  4 12  1  0  0  0  0
  5 15  1  0  0  0  0
  5 16  1  0  0  0  0
  5 43  1  0  0  0  0
  6 16  2  0  0  0  0
  6 21  1  0  0  0  0
  7 19  1  0  0  0  0
  7 24  1  0  0  0  0
  7 46  1  0  0  0  0
  8 20  1  0  0  0  0
  8 23  2  0  0  0  0
  9 27  3  0  0  0  0
 10 13  1  0  0  0  0
 10 31  1  0  0  0  0
 10 32  1  0  0  0  0
 11 14  1  0  0  0  0
 11 33  1  0  0  0  0
 11 34  1  0  0  0  0
 12 15  1  0  0  0  0
 12 35  1  0  0  0  0
 12 36  1  0  0  0  0
 13 37  1  0  0  0  0
 13 38  1  0  0  0  0
 14 39  1  0  0  0  0
 14 40  1  0  0  0  0
 15 41  1  0  0  0  0
 15 42  1  0  0  0  0
 16 18  1  0  0  0  0
 17 18  2  0  0  0  0
 17 19  1  0  0  0  0
 17 20  1  0  0  0  0
 18 44  1  0  0  0  0
 19 22  2  0  0  0  0
 20 21  2  0  0  0  0
 21 45  1  0  0  0  0
 22 23  1  0  0  0  0
 22 27  1  0  0  0  0
 23 47  1  0  0  0  0
 24 25  2  0  0  0  0
 24 26  1  0  0  0  0
 25 28  1  0  0  0  0
 25 48  1  0  0  0  0
 26 29  2  0  0  0  0
 26 49  1  0  0  0  0
 28 30  2  0  0  0  0
 29 30  1  0  0  0  0
 29 50  1  0  0  0  0
M  END
> <PUBCHEM_COMPOUND_CID>
44143344

> <PUBCHEM_COMPOUND_CANONICALIZED>
1

> <PUBCHEM_CACTVS_COMPLEXITY>
599

> <PUBCHEM_CACTVS_HBOND_ACCEPTOR>
8

> <PUBCHEM_CACTVS_HBOND_DONOR>
2

> <PUBCHEM_CACTVS_ROTATABLE_BOND>
6

> <PUBCHEM_CACTVS_SUBSKEYS>
AAADceB7oQAEAAAAAAAAAAAAAAAAAAAAAAA8WLEAAAAAAACx/AAAHwIQAAAADArhni498PPIFACwBzZnZACigC0xFyAJ2KA4dpiK4OLB29GXJAhokALYyC8QAAAOAAAAAAIAAAAAAAAABAAAAAAAAAAAAA==

> <PUBCHEM_IUPAC_OPENEYE_NAME>
4-(3-chloro-4-fluoro-anilino)-6-(2-morpholinoethylamino)-1,7-naphthyridine-3-carbonitrile

> <PUBCHEM_IUPAC_CAS_NAME>
4-(3-chloro-4-fluoroanilino)-6-[2-(4-morpholinyl)ethylamino]-1,7-naphthyridine-3-carbonitrile

> <PUBCHEM_IUPAC_NAME_MARKUP>
4-(3-chloro-4-fluoroanilino)-6-(2-morpholin-4-ylethylamino)-1,7-naphthyridine-3-carbonitrile

> <PUBCHEM_IUPAC_NAME>
4-(3-chloro-4-fluoroanilino)-6-(2-morpholin-4-ylethylamino)-1,7-naphthyridine-3-carbonitrile

> <PUBCHEM_IUPAC_SYSTEMATIC_NAME>
4-[(3-chloranyl-4-fluoranyl-phenyl)amino]-6-(2-morpholin-4-ylethylamino)-1,7-naphthyridine-3-carbonitrile

> <PUBCHEM_IUPAC_TRADITIONAL_NAME>
4-(3-chloro-4-fluoro-anilino)-6-(2-morpholinoethylamino)-1,7-naphthyridine-3-carbonitrile

> <PUBCHEM_IUPAC_INCHI>
InChI=1S/C21H20ClFN6O/c22-17-9-15(1-2-18(17)23)28-21-14(11-24)12-26-19-13-27-20(10-16(19)21)25-3-4-29-5-7-30-8-6-29/h1-2,9-10,12-13H,3-8H2,(H,25,27)(H,26,28)

> <PUBCHEM_IUPAC_INCHIKEY>
IXQLEZDNYJWUTR-UHFFFAOYSA-N

> <PUBCHEM_XLOGP3_AA>
3.6

> <PUBCHEM_EXACT_MASS>
426.1371151

> <PUBCHEM_MOLECULAR_FORMULA>
C21H20ClFN6O

> <PUBCHEM_MOLECULAR_WEIGHT>
426.9

> <PUBCHEM_SMILES>
C1COCCN1CCNC2=NC=C3C(=C2)C(=C(C=N3)C#N)NC4=CC(=C(C=C4)F)Cl

> <PUBCHEM_OPENEYE_CAN_SMILES>
C1COCCN1CCNC2=NC=C3C(=C2)C(=C(C=N3)C#N)NC4=CC(=C(C=C4)F)Cl

> <PUBCHEM_OPENEYE_ISO_SMILES>
C1COCCN1CCNC2=NC=C3C(=C2)C(=C(C=N3)C#N)NC4=CC(=C(C=C4)F)Cl

> <PUBCHEM_CACTVS_TPSA>
86.1

> <PUBCHEM_MONOISOTOPIC_WEIGHT>
426.1371151

> <PUBCHEM_TOTAL_CHARGE>
0

> <PUBCHEM_HEAVY_ATOM_COUNT>
30

> <PUBCHEM_ATOM_DEF_STEREO_COUNT>
0

> <PUBCHEM_ATOM_UDEF_STEREO_COUNT>
0

> <PUBCHEM_BOND_DEF_STEREO_COUNT>
0

> <PUBCHEM_BOND_UDEF_STEREO_COUNT>
0

> <PUBCHEM_ISOTOPIC_ATOM_COUNT>
0

> <PUBCHEM_COMPONENT_COUNT>
1

> <PUBCHEM_CACTVS_TAUTO_COUNT>
-1

> <PUBCHEM_COORDINATE_TYPE>
1
5
255

> <PUBCHEM_BONDANNOTATIONS>
16  18  8
17  18  8
17  19  8
17  20  8
19  22  8
20  21  8
22  23  8
24  25  8
24  26  8
25  28  8
26  29  8
28  30  8
29  30  8
6  16  8
6  21  8
8  20  8
8  23  8

$$$$
