9893493
  -OEChem-03202500432D

 63 65  0     0  0  0  0  0  0999 V2000
   15.9580   -2.7990    0.0000 S   0  0  0  0  0  0  0  0  0  0  0  0
    8.0622    3.7990    0.0000 F   0  0  0  0  0  0  0  0  0  0  0  0
    4.5981    3.7990    0.0000 F   0  0  0  0  0  0  0  0  0  0  0  0
   12.9580   -1.0670    0.0000 O   0  0  0  0  0  0  0  0  0  0  0  0
   11.4580   -1.9330    0.0000 O   0  0  0  0  0  0  0  0  0  0  0  0
   15.9580   -3.7990    0.0000 O   0  0  0  0  0  0  0  0  0  0  0  0
   15.9580   -1.7990    0.0000 O   0  0  0  0  0  0  0  0  0  0  0  0
    4.5981    0.7990    0.0000 O   0  0  0  0  0  0  0  0  0  0  0  0
    2.8660    1.7990    0.0000 O   0  0  0  0  0  0  0  0  0  0  0  0
    8.9282   -0.7010    0.0000 N   0  0  0  0  0  0  0  0  0  0  0  0
   11.4580   -0.2010    0.0000 N   0  0  0  0  0  0  0  0  0  0  0  0
    8.0622    1.7990    0.0000 N   0  0  0  0  0  0  0  0  0  0  0  0
    8.0622   -1.2010    0.0000 N   0  0  0  0  0  0  0  0  0  0  0  0
    7.1962    0.2990    0.0000 N   0  0  0  0  0  0  0  0  0  0  0  0
    3.7320    2.2990    0.0000 N   0  0  0  0  0  0  0  0  0  0  0  0
    9.8744    0.6038    0.0000 C   0  0  0  0  0  0  0  0  0  0  0  0
   10.1851    1.5543    0.0000 C   0  0  0  0  0  0  0  0  0  0  0  0
    8.9282    0.2990    0.0000 C   0  0  0  0  0  0  0  0  0  0  0  0
   10.4580   -0.2010    0.0000 C   0  0  0  0  0  0  0  0  0  0  0  0
    9.8744   -1.0057    0.0000 C   0  0  0  0  0  0  0  0  0  0  0  0
   11.1636    1.7605    0.0000 C   0  0  0  0  0  0  0  0  0  0  0  0
    9.5172    2.2986    0.0000 C   0  0  0  0  0  0  0  0  0  0  0  0
    8.0622    0.7990    0.0000 C   0  0  0  0  0  0  0  0  0  0  0  0
   14.4580   -1.9330    0.0000 C   0  0  0  0  0  0  0  0  0  0  0  0
   14.9580   -2.7990    0.0000 C   0  0  0  0  0  0  0  0  0  0  0  0
   13.4580   -1.9330    0.0000 C   0  0  0  0  0  0  0  0  0  0  0  0
   11.9580   -1.0670    0.0000 C   0  0  0  0  0  0  0  0  0  0  0  0
    7.1962   -0.7010    0.0000 C   0  0  0  0  0  0  0  0  0  0  0  0
    7.1962    2.2990    0.0000 C   0  0  0  0  0  0  0  0  0  0  0  0
   16.9580   -2.7990    0.0000 C   0  0  0  0  0  0  0  0  0  0  0  0
    6.3301    1.7990    0.0000 C   0  0  0  0  0  0  0  0  0  0  0  0
    7.1962    3.2990    0.0000 C   0  0  0  0  0  0  0  0  0  0  0  0
    5.4641    2.2990    0.0000 C   0  0  0  0  0  0  0  0  0  0  0  0
    6.3301    3.7990    0.0000 C   0  0  0  0  0  0  0  0  0  0  0  0
    5.4641    3.2990    0.0000 C   0  0  0  0  0  0  0  0  0  0  0  0
    4.5981    1.7990    0.0000 C   0  0  0  0  0  0  0  0  0  0  0  0
    2.0000    2.2990    0.0000 C   0  0  0  0  0  0  0  0  0  0  0  0
   10.3777    2.1436    0.0000 H   0  0  0  0  0  0  0  0  0  0  0  0
   10.0670   -1.5950    0.0000 H   0  0  0  0  0  0  0  0  0  0  0  0
   11.2914    1.1538    0.0000 H   0  0  0  0  0  0  0  0  0  0  0  0
   11.7703    1.8884    0.0000 H   0  0  0  0  0  0  0  0  0  0  0  0
   11.0357    2.3672    0.0000 H   0  0  0  0  0  0  0  0  0  0  0  0
    9.9787    2.7127    0.0000 H   0  0  0  0  0  0  0  0  0  0  0  0
    9.1032    2.7601    0.0000 H   0  0  0  0  0  0  0  0  0  0  0  0
    9.0558    1.8845    0.0000 H   0  0  0  0  0  0  0  0  0  0  0  0
   11.7680    0.3360    0.0000 H   0  0  0  0  0  0  0  0  0  0  0  0
    8.5991    2.1090    0.0000 H   0  0  0  0  0  0  0  0  0  0  0  0
   15.0406   -1.7210    0.0000 H   0  0  0  0  0  0  0  0  0  0  0  0
   14.3504   -1.3224    0.0000 H   0  0  0  0  0  0  0  0  0  0  0  0
   14.3754   -3.0111    0.0000 H   0  0  0  0  0  0  0  0  0  0  0  0
   15.0657   -3.4096    0.0000 H   0  0  0  0  0  0  0  0  0  0  0  0
   12.8754   -2.1451    0.0000 H   0  0  0  0  0  0  0  0  0  0  0  0
   13.5657   -2.5436    0.0000 H   0  0  0  0  0  0  0  0  0  0  0  0
    6.6592   -1.0110    0.0000 H   0  0  0  0  0  0  0  0  0  0  0  0
   16.9580   -3.4190    0.0000 H   0  0  0  0  0  0  0  0  0  0  0  0
   17.5780   -2.7990    0.0000 H   0  0  0  0  0  0  0  0  0  0  0  0
   16.9580   -2.1790    0.0000 H   0  0  0  0  0  0  0  0  0  0  0  0
    6.3301    1.1790    0.0000 H   0  0  0  0  0  0  0  0  0  0  0  0
    6.3301    4.4190    0.0000 H   0  0  0  0  0  0  0  0  0  0  0  0
    3.7320    2.9190    0.0000 H   0  0  0  0  0  0  0  0  0  0  0  0
    2.3100    2.8360    0.0000 H   0  0  0  0  0  0  0  0  0  0  0  0
    1.4631    2.6090    0.0000 H   0  0  0  0  0  0  0  0  0  0  0  0
    1.6900    1.7621    0.0000 H   0  0  0  0  0  0  0  0  0  0  0  0
  1  6  2  0  0  0  0
  1  7  2  0  0  0  0
  1 25  1  0  0  0  0
  1 30  1  0  0  0  0
  2 32  1  0  0  0  0
  3 35  1  0  0  0  0
  4 26  1  0  0  0  0
  4 27  1  0  0  0  0
  5 27  2  0  0  0  0
  8 36  2  0  0  0  0
  9 15  1  0  0  0  0
  9 37  1  0  0  0  0
 10 13  1  0  0  0  0
 10 18  1  0  0  0  0
 10 20  1  0  0  0  0
 11 19  1  0  0  0  0
 11 27  1  0  0  0  0
 11 46  1  0  0  0  0
 12 23  1  0  0  0  0
 12 29  1  0  0  0  0
 12 47  1  0  0  0  0
 13 28  2  0  0  0  0
 14 23  2  0  0  0  0
 14 28  1  0  0  0  0
 15 36  1  0  0  0  0
 15 60  1  0  0  0  0
 16 17  1  0  0  0  0
 16 18  2  0  0  0  0
 16 19  1  0  0  0  0
 17 21  1  0  0  0  0
 17 22  1  0  0  0  0
 17 38  1  0  0  0  0
 18 23  1  0  0  0  0
 19 20  2  0  0  0  0
 20 39  1  0  0  0  0
 21 40  1  0  0  0  0
 21 41  1  0  0  0  0
 21 42  1  0  0  0  0
 22 43  1  0  0  0  0
 22 44  1  0  0  0  0
 22 45  1  0  0  0  0
 24 25  1  0  0  0  0
 24 26  1  0  0  0  0
 24 48  1  0  0  0  0
 24 49  1  0  0  0  0
 25 50  1  0  0  0  0
 25 51  1  0  0  0  0
 26 52  1  0  0  0  0
 26 53  1  0  0  0  0
 28 54  1  0  0  0  0
 29 31  1  0  0  0  0
 29 32  2  0  0  0  0
 30 55  1  0  0  0  0
 30 56  1  0  0  0  0
 30 57  1  0  0  0  0
 31 33  2  0  0  0  0
 31 58  1  0  0  0  0
 32 34  1  0  0  0  0
 33 35  1  0  0  0  0
 33 36  1  0  0  0  0
 34 35  2  0  0  0  0
 34 59  1  0  0  0  0
 37 61  1  0  0  0  0
 37 62  1  0  0  0  0
 37 63  1  0  0  0  0
M  END
> <PUBCHEM_COMPOUND_CID>
9893493

> <PUBCHEM_COMPOUND_CANONICALIZED>
1

> <PUBCHEM_CACTVS_COMPLEXITY>
893

> <PUBCHEM_CACTVS_HBOND_ACCEPTOR>
11

> <PUBCHEM_CACTVS_HBOND_DONOR>
3

> <PUBCHEM_CACTVS_ROTATABLE_BOND>
11

> <PUBCHEM_CACTVS_SUBSKEYS>
AAADceB7uYBAAAAAAAAAAAAAAAAAAWAAAAA8QAAAAAAAAFgB8AAAHwQcAAAADQjl3g6/+LbYFAqqAzd3fHDShC81krA12CEodNmIaHLg3NGcpQhonALIyacciACOgAAAQAAAAAAAAACAAAAAAAAAAAAAAA==

> <PUBCHEM_IUPAC_OPENEYE_NAME>
3-methylsulfonylpropyl N-[4-[2,4-difluoro-5-(methoxycarbamoyl)anilino]-5-isopropyl-pyrrolo[2,1-f][1,2,4]triazin-6-yl]carbamate

> <PUBCHEM_IUPAC_CAS_NAME>
N-[4-[2,4-difluoro-5-[(methoxyamino)-oxomethyl]anilino]-5-propan-2-yl-6-pyrrolo[2,1-f][1,2,4]triazinyl]carbamic acid 3-methylsulfonylpropyl ester

> <PUBCHEM_IUPAC_NAME_MARKUP>
3-methylsulfonylpropyl <I>N</I>-[4-[2,4-difluoro-5-(methoxycarbamoyl)anilino]-5-propan-2-ylpyrrolo[2,1-f][1,2,4]triazin-6-yl]carbamate

> <PUBCHEM_IUPAC_NAME>
3-methylsulfonylpropyl N-[4-[2,4-difluoro-5-(methoxycarbamoyl)anilino]-5-propan-2-ylpyrrolo[2,1-f][1,2,4]triazin-6-yl]carbamate

> <PUBCHEM_IUPAC_SYSTEMATIC_NAME>
3-methylsulfonylpropyl N-[4-[[2,4-bis(fluoranyl)-5-(methoxycarbamoyl)phenyl]amino]-5-propan-2-yl-pyrrolo[2,1-f][1,2,4]triazin-6-yl]carbamate

> <PUBCHEM_IUPAC_TRADITIONAL_NAME>
N-[4-[2,4-difluoro-5-(methoxycarbamoyl)anilino]-5-isopropyl-pyrrolo[2,1-f][1,2,4]triazin-6-yl]carbamic acid 3-mesylpropyl ester

> <PUBCHEM_IUPAC_INCHI>
InChI=1S/C22H26F2N6O6S/c1-12(2)18-17(28-22(32)36-6-5-7-37(4,33)34)10-30-19(18)20(25-11-26-30)27-16-8-13(21(31)29-35-3)14(23)9-15(16)24/h8-12H,5-7H2,1-4H3,(H,28,32)(H,29,31)(H,25,26,27)

> <PUBCHEM_IUPAC_INCHIKEY>
ITQSJZWWFWDOKJ-UHFFFAOYSA-N

> <PUBCHEM_XLOGP3_AA>
2.3

> <PUBCHEM_EXACT_MASS>
540.16026007

> <PUBCHEM_MOLECULAR_FORMULA>
C22H26F2N6O6S

> <PUBCHEM_MOLECULAR_WEIGHT>
540.5

> <PUBCHEM_SMILES>
CC(C)C1=C2C(=NC=NN2C=C1NC(=O)OCCCS(=O)(=O)C)NC3=C(C=C(C(=C3)C(=O)NOC)F)F

> <PUBCHEM_OPENEYE_CAN_SMILES>
CC(C)C1=C2C(=NC=NN2C=C1NC(=O)OCCCS(=O)(=O)C)NC3=C(C=C(C(=C3)C(=O)NOC)F)F

> <PUBCHEM_OPENEYE_ISO_SMILES>
CC(C)C1=C2C(=NC=NN2C=C1NC(=O)OCCCS(=O)(=O)C)NC3=C(C=C(C(=C3)C(=O)NOC)F)F

> <PUBCHEM_CACTVS_TPSA>
161

> <PUBCHEM_MONOISOTOPIC_WEIGHT>
540.16026007

> <PUBCHEM_TOTAL_CHARGE>
0

> <PUBCHEM_HEAVY_ATOM_COUNT>
37

> <PUBCHEM_ATOM_DEF_STEREO_COUNT>
0

> <PUBCHEM_ATOM_UDEF_STEREO_COUNT>
0

> <PUBCHEM_BOND_DEF_STEREO_COUNT>
0

> <PUBCHEM_BOND_UDEF_STEREO_COUNT>
0

> <PUBCHEM_ISOTOPIC_ATOM_COUNT>
0

> <PUBCHEM_COMPONENT_COUNT>
1

> <PUBCHEM_CACTVS_TAUTO_COUNT>
-1

> <PUBCHEM_COORDINATE_TYPE>
1
5
255

> <PUBCHEM_BONDANNOTATIONS>
10  13  8
10  18  8
10  20  8
13  28  8
14  23  8
14  28  8
16  18  8
16  19  8
18  23  8
19  20  8
29  31  8
29  32  8
31  33  8
32  34  8
33  35  8
34  35  8

$$$$
