49830375
  -OEChem-03202503202D

 45 49  0     0  0  0  0  0  0999 V2000
   11.4690   -0.0641    0.0000 S   0  0  0  0  0  0  0  0  0  0  0  0
    5.4641    0.6305    0.0000 O   0  0  0  0  0  0  0  0  0  0  0  0
   11.5004   -1.9109    0.0000 N   0  0  0  0  0  0  0  0  0  0  0  0
    6.3359    2.1271    0.0000 N   0  0  0  0  0  0  0  0  0  0  0  0
    9.8691   -2.6464    0.0000 N   0  0  0  0  0  0  0  0  0  0  0  0
    8.4611   -1.5825    0.0000 N   0  0  0  0  0  0  0  0  0  0  0  0
    4.6038    2.1338    0.0000 N   0  0  0  0  0  0  0  0  0  0  0  0
    9.8660    2.1030    0.0000 C   0  0  0  0  0  0  0  0  0  0  0  0
    9.8660    0.1030    0.0000 C   0  0  0  0  0  0  0  0  0  0  0  0
   10.7320    1.6030    0.0000 C   0  0  0  0  0  0  0  0  0  0  0  0
    9.0000    1.6030    0.0000 C   0  0  0  0  0  0  0  0  0  0  0  0
    9.0000    0.6030    0.0000 C   0  0  0  0  0  0  0  0  0  0  0  0
   10.7320    0.6030    0.0000 C   0  0  0  0  0  0  0  0  0  0  0  0
   10.0752   -0.8689    0.0000 C   0  0  0  0  0  0  0  0  0  0  0  0
    8.1060    2.1376    0.0000 C   0  0  0  0  0  0  0  0  0  0  0  0
    8.1060    0.0683    0.0000 C   0  0  0  0  0  0  0  0  0  0  0  0
   11.0639   -0.9719    0.0000 C   0  0  0  0  0  0  0  0  0  0  0  0
    7.2000    1.6238    0.0000 C   0  0  0  0  0  0  0  0  0  0  0  0
    7.2000    0.5821    0.0000 C   0  0  0  0  0  0  0  0  0  0  0  0
    9.4544   -1.6976    0.0000 C   0  0  0  0  0  0  0  0  0  0  0  0
   10.8990   -2.7538    0.0000 C   0  0  0  0  0  0  0  0  0  0  0  0
    5.4679    1.6304    0.0000 C   0  0  0  0  0  0  0  0  0  0  0  0
    3.7359    1.6371    0.0000 C   0  0  0  0  0  0  0  0  0  0  0  0
    2.8718    2.1404    0.0000 C   0  0  0  0  0  0  0  0  0  0  0  0
    3.7320    0.6371    0.0000 C   0  0  0  0  0  0  0  0  0  0  0  0
    2.0038    1.6438    0.0000 C   0  0  0  0  0  0  0  0  0  0  0  0
    2.8641    0.1405    0.0000 C   0  0  0  0  0  0  0  0  0  0  0  0
    2.0000    0.6438    0.0000 C   0  0  0  0  0  0  0  0  0  0  0  0
   10.2645    2.5779    0.0000 H   0  0  0  0  0  0  0  0  0  0  0  0
    9.4675    2.5779    0.0000 H   0  0  0  0  0  0  0  0  0  0  0  0
   11.3426    1.4953    0.0000 H   0  0  0  0  0  0  0  0  0  0  0  0
   10.9441    2.1856    0.0000 H   0  0  0  0  0  0  0  0  0  0  0  0
    8.1132    2.7576    0.0000 H   0  0  0  0  0  0  0  0  0  0  0  0
    8.1132   -0.5517    0.0000 H   0  0  0  0  0  0  0  0  0  0  0  0
    6.6642    0.2701    0.0000 H   0  0  0  0  0  0  0  0  0  0  0  0
    6.3383    2.7471    0.0000 H   0  0  0  0  0  0  0  0  0  0  0  0
   11.1539   -3.3190    0.0000 H   0  0  0  0  0  0  0  0  0  0  0  0
    8.0913   -2.0801    0.0000 H   0  0  0  0  0  0  0  0  0  0  0  0
    8.2150   -1.0134    0.0000 H   0  0  0  0  0  0  0  0  0  0  0  0
    4.6062    2.7538    0.0000 H   0  0  0  0  0  0  0  0  0  0  0  0
    2.8742    2.7604    0.0000 H   0  0  0  0  0  0  0  0  0  0  0  0
    4.2678    0.3251    0.0000 H   0  0  0  0  0  0  0  0  0  0  0  0
    1.4681    1.9559    0.0000 H   0  0  0  0  0  0  0  0  0  0  0  0
    2.8617   -0.4795    0.0000 H   0  0  0  0  0  0  0  0  0  0  0  0
    1.4619    0.3359    0.0000 H   0  0  0  0  0  0  0  0  0  0  0  0
  1 13  1  0  0  0  0
  1 17  1  0  0  0  0
  2 22  2  0  0  0  0
  3 17  2  0  0  0  0
  3 21  1  0  0  0  0
  4 18  1  0  0  0  0
  4 22  1  0  0  0  0
  4 36  1  0  0  0  0
  5 20  1  0  0  0  0
  5 21  2  0  0  0  0
  6 20  1  0  0  0  0
  6 38  1  0  0  0  0
  6 39  1  0  0  0  0
  7 22  1  0  0  0  0
  7 23  1  0  0  0  0
  7 40  1  0  0  0  0
  8 10  1  0  0  0  0
  8 11  1  0  0  0  0
  8 29  1  0  0  0  0
  8 30  1  0  0  0  0
  9 12  1  0  0  0  0
  9 13  2  0  0  0  0
  9 14  1  0  0  0  0
 10 13  1  0  0  0  0
 10 31  1  0  0  0  0
 10 32  1  0  0  0  0
 11 12  2  0  0  0  0
 11 15  1  0  0  0  0
 12 16  1  0  0  0  0
 14 17  1  0  0  0  0
 14 20  2  0  0  0  0
 15 18  2  0  0  0  0
 15 33  1  0  0  0  0
 16 19  2  0  0  0  0
 16 34  1  0  0  0  0
 18 19  1  0  0  0  0
 19 35  1  0  0  0  0
 21 37  1  0  0  0  0
 23 24  2  0  0  0  0
 23 25  1  0  0  0  0
 24 26  1  0  0  0  0
 24 41  1  0  0  0  0
 25 27  2  0  0  0  0
 25 42  1  0  0  0  0
 26 28  2  0  0  0  0
 26 43  1  0  0  0  0
 27 28  1  0  0  0  0
 27 44  1  0  0  0  0
 28 45  1  0  0  0  0
M  END
> <PUBCHEM_COMPOUND_CID>
49830375

> <PUBCHEM_COMPOUND_CANONICALIZED>
1

> <PUBCHEM_CACTVS_COMPLEXITY>
571

> <PUBCHEM_CACTVS_HBOND_ACCEPTOR>
5

> <PUBCHEM_CACTVS_HBOND_DONOR>
3

> <PUBCHEM_CACTVS_ROTATABLE_BOND>
2

> <PUBCHEM_CACTVS_SUBSKEYS>
AAADceB7oABAAAAAAAAAAAAAAAAAASAAAAA8YMEAAAAAAFjB/AAAHgQQAAAADAiBWgQ18dbIEAisAiZjdACD0KlxCrgJ2DAoZJiIKCLg2dGEJAxolAJoyCcQgMAOiAAAQAAQAAAwAAWAACgAAAAAAAAAAA==

> <PUBCHEM_IUPAC_OPENEYE_NAME>
1-(16-amino-11-thia-13,15-diazatetracyclo[8.7.0.02,7.012,17]heptadeca-1(10),2(7),3,5,12,14,16-heptaen-5-yl)-3-phenyl-urea

> <PUBCHEM_IUPAC_CAS_NAME>
1-(16-amino-11-thia-13,15-diazatetracyclo[8.7.0.02,7.012,17]heptadeca-1(10),2(7),3,5,12,14,16-heptaen-5-yl)-3-phenylurea

> <PUBCHEM_IUPAC_NAME_MARKUP>
1-(16-amino-11-thia-13,15-diazatetracyclo[8.7.0.0<SUP>2,7</SUP>.0<SUP>12,17</SUP>]heptadeca-1(10),2(7),3,5,12,14,16-heptaen-5-yl)-3-phenylurea

> <PUBCHEM_IUPAC_NAME>
1-(16-amino-11-thia-13,15-diazatetracyclo[8.7.0.02,7.012,17]heptadeca-1(10),2(7),3,5,12,14,16-heptaen-5-yl)-3-phenylurea

> <PUBCHEM_IUPAC_SYSTEMATIC_NAME>
1-(16-azanyl-11-thia-13,15-diazatetracyclo[8.7.0.02,7.012,17]heptadeca-1(10),2(7),3,5,12,14,16-heptaen-5-yl)-3-phenyl-urea

> <PUBCHEM_IUPAC_TRADITIONAL_NAME>
1-(16-amino-11-thia-13,15-diazatetracyclo[8.7.0.02,7.012,17]heptadeca-1(10),2(7),3,5,12,14,16-heptaen-5-yl)-3-phenyl-urea

> <PUBCHEM_IUPAC_INCHI>
InChI=1S/C21H17N5OS/c22-19-18-17-15-8-7-14(26-21(27)25-13-4-2-1-3-5-13)10-12(15)6-9-16(17)28-20(18)24-11-23-19/h1-5,7-8,10-11H,6,9H2,(H2,22,23,24)(H2,25,26,27)

> <PUBCHEM_IUPAC_INCHIKEY>
LRLDYTTWQIFWBD-UHFFFAOYSA-N

> <PUBCHEM_XLOGP3_AA>
3.7

> <PUBCHEM_EXACT_MASS>
387.11538136

> <PUBCHEM_MOLECULAR_FORMULA>
C21H17N5OS

> <PUBCHEM_MOLECULAR_WEIGHT>
387.5

> <PUBCHEM_SMILES>
C1CC2=C(C3=C1C=C(C=C3)NC(=O)NC4=CC=CC=C4)C5=C(N=CN=C5S2)N

> <PUBCHEM_OPENEYE_CAN_SMILES>
C1CC2=C(C3=C1C=C(C=C3)NC(=O)NC4=CC=CC=C4)C5=C(N=CN=C5S2)N

> <PUBCHEM_OPENEYE_ISO_SMILES>
C1CC2=C(C3=C1C=C(C=C3)NC(=O)NC4=CC=CC=C4)C5=C(N=CN=C5S2)N

> <PUBCHEM_CACTVS_TPSA>
121

> <PUBCHEM_MONOISOTOPIC_WEIGHT>
387.11538136

> <PUBCHEM_TOTAL_CHARGE>
0

> <PUBCHEM_HEAVY_ATOM_COUNT>
28

> <PUBCHEM_ATOM_DEF_STEREO_COUNT>
0

> <PUBCHEM_ATOM_UDEF_STEREO_COUNT>
0

> <PUBCHEM_BOND_DEF_STEREO_COUNT>
0

> <PUBCHEM_BOND_UDEF_STEREO_COUNT>
0

> <PUBCHEM_ISOTOPIC_ATOM_COUNT>
0

> <PUBCHEM_COMPONENT_COUNT>
1

> <PUBCHEM_CACTVS_TAUTO_COUNT>
-1

> <PUBCHEM_COORDINATE_TYPE>
1
5
255

> <PUBCHEM_BONDANNOTATIONS>
1  13  8
1  17  8
11  12  8
11  15  8
12  16  8
14  17  8
14  20  8
15  18  8
16  19  8
18  19  8
23  24  8
23  25  8
24  26  8
25  27  8
26  28  8
27  28  8
3  17  8
3  21  8
5  20  8
5  21  8
9  13  8
9  14  8

$$$$
