18451149
  -OEChem-03202500542D

 52 55  0     0  0  0  0  0  0999 V2000
    5.2152   -1.8080    0.0000 S   0  0  0  0  0  0  0  0  0  0  0  0
    8.1042    3.0655    0.0000 O   0  0  0  0  0  0  0  0  0  0  0  0
    2.5369   -0.5033    0.0000 N   0  0  0  0  0  0  0  0  0  0  0  0
    6.4579    3.6036    0.0000 N   0  0  0  0  0  0  0  0  0  0  0  0
    3.4030    0.9967    0.0000 N   0  0  0  0  0  0  0  0  0  0  0  0
    7.7470    4.7603    0.0000 N   0  0  0  0  0  0  0  0  0  0  0  0
    2.5369   -5.5033    0.0000 N   0  0  0  0  0  0  0  0  0  0  0  0
    5.2152   -0.1985    0.0000 C   0  0  0  0  0  0  0  0  0  0  0  0
    4.2690   -0.5033    0.0000 C   0  0  0  0  0  0  0  0  0  0  0  0
    5.5259    0.7520    0.0000 C   0  0  0  0  0  0  0  0  0  0  0  0
    4.2690   -1.5033    0.0000 C   0  0  0  0  0  0  0  0  0  0  0  0
    5.7988   -1.0033    0.0000 C   0  0  0  0  0  0  0  0  0  0  0  0
    3.4030   -0.0033    0.0000 C   0  0  0  0  0  0  0  0  0  0  0  0
    4.8580    1.4963    0.0000 C   0  0  0  0  0  0  0  0  0  0  0  0
    6.5044    0.9582    0.0000 C   0  0  0  0  0  0  0  0  0  0  0  0
    3.4030   -2.0033    0.0000 C   0  0  0  0  0  0  0  0  0  0  0  0
    6.1472    2.6530    0.0000 C   0  0  0  0  0  0  0  0  0  0  0  0
    5.1687    2.4468    0.0000 C   0  0  0  0  0  0  0  0  0  0  0  0
    6.8150    1.9087    0.0000 C   0  0  0  0  0  0  0  0  0  0  0  0
    2.5369   -1.5033    0.0000 C   0  0  0  0  0  0  0  0  0  0  0  0
    8.7255    4.9665    0.0000 C   0  0  0  0  0  0  0  0  0  0  0  0
    7.4364    3.8098    0.0000 C   0  0  0  0  0  0  0  0  0  0  0  0
    3.4030   -3.0033    0.0000 C   0  0  0  0  0  0  0  0  0  0  0  0
   10.3719    4.4284    0.0000 C   0  0  0  0  0  0  0  0  0  0  0  0
    9.3934    4.2222    0.0000 C   0  0  0  0  0  0  0  0  0  0  0  0
    9.0362    5.9170    0.0000 C   0  0  0  0  0  0  0  0  0  0  0  0
   10.6825    5.3790    0.0000 C   0  0  0  0  0  0  0  0  0  0  0  0
   10.0147    6.1233    0.0000 C   0  0  0  0  0  0  0  0  0  0  0  0
   11.0397    3.6841    0.0000 C   0  0  0  0  0  0  0  0  0  0  0  0
    3.4030   -4.0033    0.0000 C   0  0  0  0  0  0  0  0  0  0  0  0
    3.4030   -5.0033    0.0000 C   0  0  0  0  0  0  0  0  0  0  0  0
    6.4188   -1.0033    0.0000 H   0  0  0  0  0  0  0  0  0  0  0  0
    4.2514    1.3684    0.0000 H   0  0  0  0  0  0  0  0  0  0  0  0
    6.9184    0.4967    0.0000 H   0  0  0  0  0  0  0  0  0  0  0  0
    4.7546    2.9083    0.0000 H   0  0  0  0  0  0  0  0  0  0  0  0
    7.4217    2.0366    0.0000 H   0  0  0  0  0  0  0  0  0  0  0  0
    2.0000   -1.8133    0.0000 H   0  0  0  0  0  0  0  0  0  0  0  0
    6.0438    4.0650    0.0000 H   0  0  0  0  0  0  0  0  0  0  0  0
    2.8660    1.3067    0.0000 H   0  0  0  0  0  0  0  0  0  0  0  0
    3.9399    1.3067    0.0000 H   0  0  0  0  0  0  0  0  0  0  0  0
    7.3330    5.2218    0.0000 H   0  0  0  0  0  0  0  0  0  0  0  0
    9.2008    3.6329    0.0000 H   0  0  0  0  0  0  0  0  0  0  0  0
    8.6221    6.3785    0.0000 H   0  0  0  0  0  0  0  0  0  0  0  0
   11.2892    5.5068    0.0000 H   0  0  0  0  0  0  0  0  0  0  0  0
   10.2073    6.7126    0.0000 H   0  0  0  0  0  0  0  0  0  0  0  0
   10.5783    3.2701    0.0000 H   0  0  0  0  0  0  0  0  0  0  0  0
   11.4538    3.2227    0.0000 H   0  0  0  0  0  0  0  0  0  0  0  0
   11.5012    4.0982    0.0000 H   0  0  0  0  0  0  0  0  0  0  0  0
    3.6150   -5.5859    0.0000 H   0  0  0  0  0  0  0  0  0  0  0  0
    4.0135   -4.8956    0.0000 H   0  0  0  0  0  0  0  0  0  0  0  0
    2.5369   -6.1233    0.0000 H   0  0  0  0  0  0  0  0  0  0  0  0
    2.0000   -5.1933    0.0000 H   0  0  0  0  0  0  0  0  0  0  0  0
  1 11  1  0  0  0  0
  1 12  1  0  0  0  0
  2 22  2  0  0  0  0
  3 13  2  0  0  0  0
  3 20  1  0  0  0  0
  4 17  1  0  0  0  0
  4 22  1  0  0  0  0
  4 38  1  0  0  0  0
  5 13  1  0  0  0  0
  5 39  1  0  0  0  0
  5 40  1  0  0  0  0
  6 21  1  0  0  0  0
  6 22  1  0  0  0  0
  6 41  1  0  0  0  0
  7 31  1  0  0  0  0
  7 51  1  0  0  0  0
  7 52  1  0  0  0  0
  8  9  1  0  0  0  0
  8 10  1  0  0  0  0
  8 12  2  0  0  0  0
  9 11  2  0  0  0  0
  9 13  1  0  0  0  0
 10 14  2  0  0  0  0
 10 15  1  0  0  0  0
 11 16  1  0  0  0  0
 12 32  1  0  0  0  0
 14 18  1  0  0  0  0
 14 33  1  0  0  0  0
 15 19  2  0  0  0  0
 15 34  1  0  0  0  0
 16 20  2  0  0  0  0
 16 23  1  0  0  0  0
 17 18  2  0  0  0  0
 17 19  1  0  0  0  0
 18 35  1  0  0  0  0
 19 36  1  0  0  0  0
 20 37  1  0  0  0  0
 21 25  1  0  0  0  0
 21 26  2  0  0  0  0
 23 30  3  0  0  0  0
 24 25  2  0  0  0  0
 24 27  1  0  0  0  0
 24 29  1  0  0  0  0
 25 42  1  0  0  0  0
 26 28  1  0  0  0  0
 26 43  1  0  0  0  0
 27 28  2  0  0  0  0
 27 44  1  0  0  0  0
 28 45  1  0  0  0  0
 29 46  1  0  0  0  0
 29 47  1  0  0  0  0
 29 48  1  0  0  0  0
 30 31  1  0  0  0  0
 31 49  1  0  0  0  0
 31 50  1  0  0  0  0
M  END
> <PUBCHEM_COMPOUND_CID>
18451149

> <PUBCHEM_COMPOUND_CANONICALIZED>
1

> <PUBCHEM_CACTVS_COMPLEXITY>
682

> <PUBCHEM_CACTVS_HBOND_ACCEPTOR>
5

> <PUBCHEM_CACTVS_HBOND_DONOR>
4

> <PUBCHEM_CACTVS_ROTATABLE_BOND>
4

> <PUBCHEM_CACTVS_SUBSKEYS>
AAADceB7oABAAAAAAAAAAAAAAAAAASAAAAA8YIAAAAAAAFgB/AAAHgQQAAAADAjFWgS/8dLIEAjsEjZndAiDgKkxCjAI2LAoZJiIIGLgkZGEIAxolALoyCcQgMAOiAAAQAAAAAAQAACAAAAAAAAAAAAAAA==

> <PUBCHEM_IUPAC_OPENEYE_NAME>
1-[4-[4-amino-7-(3-aminoprop-1-ynyl)thieno[3,2-c]pyridin-3-yl]phenyl]-3-(m-tolyl)urea

> <PUBCHEM_IUPAC_CAS_NAME>
1-[4-[4-amino-7-(3-aminoprop-1-ynyl)-3-thieno[3,2-c]pyridinyl]phenyl]-3-(3-methylphenyl)urea

> <PUBCHEM_IUPAC_NAME_MARKUP>
1-[4-[4-amino-7-(3-aminoprop-1-ynyl)thieno[3,2-c]pyridin-3-yl]phenyl]-3-(3-methylphenyl)urea

> <PUBCHEM_IUPAC_NAME>
1-[4-[4-amino-7-(3-aminoprop-1-ynyl)thieno[3,2-c]pyridin-3-yl]phenyl]-3-(3-methylphenyl)urea

> <PUBCHEM_IUPAC_SYSTEMATIC_NAME>
1-[4-[4-azanyl-7-(3-azanylprop-1-ynyl)thieno[3,2-c]pyridin-3-yl]phenyl]-3-(3-methylphenyl)urea

> <PUBCHEM_IUPAC_TRADITIONAL_NAME>
1-[4-[4-amino-7-(3-aminoprop-1-ynyl)thieno[3,2-c]pyridin-3-yl]phenyl]-3-(m-tolyl)urea

> <PUBCHEM_IUPAC_INCHI>
InChI=1S/C24H21N5OS/c1-15-4-2-6-19(12-15)29-24(30)28-18-9-7-16(8-10-18)20-14-31-22-17(5-3-11-25)13-27-23(26)21(20)22/h2,4,6-10,12-14H,11,25H2,1H3,(H2,26,27)(H2,28,29,30)

> <PUBCHEM_IUPAC_INCHIKEY>
SFPWNTQWFFNJIH-UHFFFAOYSA-N

> <PUBCHEM_XLOGP3_AA>
3.3

> <PUBCHEM_EXACT_MASS>
427.14668148

> <PUBCHEM_MOLECULAR_FORMULA>
C24H21N5OS

> <PUBCHEM_MOLECULAR_WEIGHT>
427.5

> <PUBCHEM_SMILES>
CC1=CC(=CC=C1)NC(=O)NC2=CC=C(C=C2)C3=CSC4=C3C(=NC=C4C#CCN)N

> <PUBCHEM_OPENEYE_CAN_SMILES>
CC1=CC(=CC=C1)NC(=O)NC2=CC=C(C=C2)C3=CSC4=C3C(=NC=C4C#CCN)N

> <PUBCHEM_OPENEYE_ISO_SMILES>
CC1=CC(=CC=C1)NC(=O)NC2=CC=C(C=C2)C3=CSC4=C3C(=NC=C4C#CCN)N

> <PUBCHEM_CACTVS_TPSA>
134

> <PUBCHEM_MONOISOTOPIC_WEIGHT>
427.14668148

> <PUBCHEM_TOTAL_CHARGE>
0

> <PUBCHEM_HEAVY_ATOM_COUNT>
31

> <PUBCHEM_ATOM_DEF_STEREO_COUNT>
0

> <PUBCHEM_ATOM_UDEF_STEREO_COUNT>
0

> <PUBCHEM_BOND_DEF_STEREO_COUNT>
0

> <PUBCHEM_BOND_UDEF_STEREO_COUNT>
0

> <PUBCHEM_ISOTOPIC_ATOM_COUNT>
0

> <PUBCHEM_COMPONENT_COUNT>
1

> <PUBCHEM_CACTVS_TAUTO_COUNT>
-1

> <PUBCHEM_COORDINATE_TYPE>
1
5
255

> <PUBCHEM_BONDANNOTATIONS>
1  11  8
1  12  8
10  14  8
10  15  8
11  16  8
14  18  8
15  19  8
16  20  8
17  18  8
17  19  8
21  25  8
21  26  8
24  25  8
24  27  8
26  28  8
27  28  8
3  13  8
3  20  8
8  12  8
8  9  8
9  11  8
9  13  8

$$$$
