10125830
  -OEChem-03202504322D

 41 44  0     0  0  0  0  0  0999 V2000
    9.7260   -0.1459    0.0000 O   0  0  0  0  0  0  0  0  0  0  0  0
    2.0000   -0.6459    0.0000 O   0  0  0  0  0  0  0  0  0  0  0  0
    2.0000   -2.6459    0.0000 O   0  0  0  0  0  0  0  0  0  0  0  0
    8.1424   -0.9506    0.0000 N   0  0  0  0  0  0  0  0  0  0  0  0
    9.8399    2.7284    0.0000 N   0  0  0  0  0  0  0  0  0  0  0  0
    7.1962    0.3541    0.0000 C   0  0  0  0  0  0  0  0  0  0  0  0
    7.1962   -0.6459    0.0000 C   0  0  0  0  0  0  0  0  0  0  0  0
    8.1424    0.6588    0.0000 C   0  0  0  0  0  0  0  0  0  0  0  0
    5.4641   -0.6459    0.0000 C   0  0  0  0  0  0  0  0  0  0  0  0
    6.3301   -1.1459    0.0000 C   0  0  0  0  0  0  0  0  0  0  0  0
    6.3301    0.8541    0.0000 C   0  0  0  0  0  0  0  0  0  0  0  0
    8.7260   -0.1459    0.0000 C   0  0  0  0  0  0  0  0  0  0  0  0
    5.4641    0.3541    0.0000 C   0  0  0  0  0  0  0  0  0  0  0  0
    4.5981   -1.1459    0.0000 C   0  0  0  0  0  0  0  0  0  0  0  0
    8.4530    1.6094    0.0000 C   0  0  0  0  0  0  0  0  0  0  0  0
    9.4315    1.8156    0.0000 C   0  0  0  0  0  0  0  0  0  0  0  0
    3.7320   -0.6459    0.0000 C   0  0  0  0  0  0  0  0  0  0  0  0
    4.5981   -2.1459    0.0000 C   0  0  0  0  0  0  0  0  0  0  0  0
    2.8660   -1.1459    0.0000 C   0  0  0  0  0  0  0  0  0  0  0  0
    3.7320   -2.6459    0.0000 C   0  0  0  0  0  0  0  0  0  0  0  0
   10.1735    1.1452    0.0000 C   0  0  0  0  0  0  0  0  0  0  0  0
    2.8660   -2.1459    0.0000 C   0  0  0  0  0  0  0  0  0  0  0  0
   10.8342    2.6222    0.0000 C   0  0  0  0  0  0  0  0  0  0  0  0
   11.0404    1.6437    0.0000 C   0  0  0  0  0  0  0  0  0  0  0  0
    2.0000    0.3541    0.0000 C   0  0  0  0  0  0  0  0  0  0  0  0
    6.3301   -1.7659    0.0000 H   0  0  0  0  0  0  0  0  0  0  0  0
    6.3301    1.4741    0.0000 H   0  0  0  0  0  0  0  0  0  0  0  0
    8.3350   -1.5400    0.0000 H   0  0  0  0  0  0  0  0  0  0  0  0
    4.9272    0.6641    0.0000 H   0  0  0  0  0  0  0  0  0  0  0  0
    8.0390    2.0708    0.0000 H   0  0  0  0  0  0  0  0  0  0  0  0
    3.7320   -0.0259    0.0000 H   0  0  0  0  0  0  0  0  0  0  0  0
    5.1350   -2.4559    0.0000 H   0  0  0  0  0  0  0  0  0  0  0  0
    3.7320   -3.2659    0.0000 H   0  0  0  0  0  0  0  0  0  0  0  0
    9.5308    3.2659    0.0000 H   0  0  0  0  0  0  0  0  0  0  0  0
   10.1077    0.5287    0.0000 H   0  0  0  0  0  0  0  0  0  0  0  0
   11.2499    3.0822    0.0000 H   0  0  0  0  0  0  0  0  0  0  0  0
   11.6064    1.3905    0.0000 H   0  0  0  0  0  0  0  0  0  0  0  0
    2.0000   -3.2659    0.0000 H   0  0  0  0  0  0  0  0  0  0  0  0
    2.6200    0.3541    0.0000 H   0  0  0  0  0  0  0  0  0  0  0  0
    2.0000    0.9741    0.0000 H   0  0  0  0  0  0  0  0  0  0  0  0
    1.3800    0.3541    0.0000 H   0  0  0  0  0  0  0  0  0  0  0  0
  1 12  2  0  0  0  0
  2 19  1  0  0  0  0
  2 25  1  0  0  0  0
  3 22  1  0  0  0  0
  3 38  1  0  0  0  0
  4  7  1  0  0  0  0
  4 12  1  0  0  0  0
  4 28  1  0  0  0  0
  5 16  1  0  0  0  0
  5 23  1  0  0  0  0
  5 34  1  0  0  0  0
  6  7  2  0  0  0  0
  6  8  1  0  0  0  0
  6 11  1  0  0  0  0
  7 10  1  0  0  0  0
  8 12  1  0  0  0  0
  8 15  2  0  0  0  0
  9 10  2  0  0  0  0
  9 13  1  0  0  0  0
  9 14  1  0  0  0  0
 10 26  1  0  0  0  0
 11 13  2  0  0  0  0
 11 27  1  0  0  0  0
 13 29  1  0  0  0  0
 14 17  2  0  0  0  0
 14 18  1  0  0  0  0
 15 16  1  0  0  0  0
 15 30  1  0  0  0  0
 16 21  2  0  0  0  0
 17 19  1  0  0  0  0
 17 31  1  0  0  0  0
 18 20  2  0  0  0  0
 18 32  1  0  0  0  0
 19 22  2  0  0  0  0
 20 22  1  0  0  0  0
 20 33  1  0  0  0  0
 21 24  1  0  0  0  0
 21 35  1  0  0  0  0
 23 24  2  0  0  0  0
 23 36  1  0  0  0  0
 24 37  1  0  0  0  0
 25 39  1  0  0  0  0
 25 40  1  0  0  0  0
 25 41  1  0  0  0  0
M  END
> <PUBCHEM_COMPOUND_CID>
10125830

> <PUBCHEM_COMPOUND_CANONICALIZED>
1

> <PUBCHEM_CACTVS_COMPLEXITY>
535

> <PUBCHEM_CACTVS_HBOND_ACCEPTOR>
3

> <PUBCHEM_CACTVS_HBOND_DONOR>
3

> <PUBCHEM_CACTVS_ROTATABLE_BOND>
3

> <PUBCHEM_CACTVS_SUBSKEYS>
AAADceB7MAAAAAAAAAAAAAAAAAAAAWLAAAAwYAAAAAAAAFgB0AAAHgAQCAAADAzBngY+xpLJlgCoAzV3VACCiCAxIiAI2aE+7NgNJvLGtZuEcCtk1BHL+YecyPCO4AABQAACQADAAAKAAASAAAAAAAAAAA==

> <PUBCHEM_IUPAC_OPENEYE_NAME>
(3Z)-6-(4-hydroxy-3-methoxy-phenyl)-3-(1H-pyrrol-2-ylmethylene)indolin-2-one

> <PUBCHEM_IUPAC_CAS_NAME>
(3Z)-6-(4-hydroxy-3-methoxyphenyl)-3-(1H-pyrrol-2-ylmethylidene)-1H-indol-2-one

> <PUBCHEM_IUPAC_NAME_MARKUP>
(3<I>Z</I>)-6-(4-hydroxy-3-methoxyphenyl)-3-(1<I>H</I>-pyrrol-2-ylmethylidene)-1<I>H</I>-indol-2-one

> <PUBCHEM_IUPAC_NAME>
(3Z)-6-(4-hydroxy-3-methoxyphenyl)-3-(1H-pyrrol-2-ylmethylidene)-1H-indol-2-one

> <PUBCHEM_IUPAC_SYSTEMATIC_NAME>
(3Z)-6-(3-methoxy-4-oxidanyl-phenyl)-3-(1H-pyrrol-2-ylmethylidene)-1H-indol-2-one

> <PUBCHEM_IUPAC_TRADITIONAL_NAME>
(3Z)-6-(4-hydroxy-3-methoxy-phenyl)-3-(1H-pyrrol-2-ylmethylene)oxindole

> <PUBCHEM_IUPAC_INCHI>
InChI=1S/C20H16N2O3/c1-25-19-10-13(5-7-18(19)23)12-4-6-15-16(11-14-3-2-8-21-14)20(24)22-17(15)9-12/h2-11,21,23H,1H3,(H,22,24)/b16-11-

> <PUBCHEM_IUPAC_INCHIKEY>
AYSXURJZVXBSRV-WJDWOHSUSA-N

> <PUBCHEM_XLOGP3_AA>
3

> <PUBCHEM_EXACT_MASS>
332.11609238

> <PUBCHEM_MOLECULAR_FORMULA>
C20H16N2O3

> <PUBCHEM_MOLECULAR_WEIGHT>
332.4

> <PUBCHEM_SMILES>
COC1=C(C=CC(=C1)C2=CC3=C(C=C2)/C(=C/C4=CC=CN4)/C(=O)N3)O

> <PUBCHEM_OPENEYE_CAN_SMILES>
COC1=C(C=CC(=C1)C2=CC3=C(C=C2)C(=CC4=CC=CN4)C(=O)N3)O

> <PUBCHEM_OPENEYE_ISO_SMILES>
COC1=C(C=CC(=C1)C2=CC3=C(C=C2)/C(=C/C4=CC=CN4)/C(=O)N3)O

> <PUBCHEM_CACTVS_TPSA>
74.4

> <PUBCHEM_MONOISOTOPIC_WEIGHT>
332.11609238

> <PUBCHEM_TOTAL_CHARGE>
0

> <PUBCHEM_HEAVY_ATOM_COUNT>
25

> <PUBCHEM_ATOM_DEF_STEREO_COUNT>
0

> <PUBCHEM_ATOM_UDEF_STEREO_COUNT>
0

> <PUBCHEM_BOND_DEF_STEREO_COUNT>
1

> <PUBCHEM_BOND_UDEF_STEREO_COUNT>
0

> <PUBCHEM_ISOTOPIC_ATOM_COUNT>
0

> <PUBCHEM_COMPONENT_COUNT>
1

> <PUBCHEM_CACTVS_TAUTO_COUNT>
-1

> <PUBCHEM_COORDINATE_TYPE>
1
5
255

> <PUBCHEM_BONDANNOTATIONS>
11  13  8
14  17  8
14  18  8
16  21  8
17  19  8
18  20  8
19  22  8
20  22  8
21  24  8
23  24  8
5  16  8
5  23  8
6  11  8
6  7  8
7  10  8
9  10  8
9  13  8

$$$$
