9885023
  -OEChem-03192523172D

 43 45  0     1  0  0  0  0  0999 V2000
    3.1235   -0.3573    0.0000 S   0  0  0  0  0  0  0  0  0  0  0  0
    2.1235   -0.3573    0.0000 O   0  0  0  0  0  0  0  0  0  0  0  0
    4.1235   -0.3573    0.0000 O   0  0  0  0  0  0  0  0  0  0  0  0
    3.1235    0.6427    0.0000 N   0  0  3  0  0  0  0  0  0  0  0  0
    3.6235    2.8333    0.0000 N   0  0  0  0  0  0  0  0  0  0  0  0
    5.7895   -2.8781    0.0000 N   0  0  0  0  0  0  0  0  0  0  0  0
    4.0245    1.0766    0.0000 C   0  0  3  0  0  0  0  0  0  0  0  0
    2.2225    1.0766    0.0000 C   0  0  0  0  0  0  0  0  0  0  0  0
    4.2470    2.0515    0.0000 C   0  0  0  0  0  0  0  0  0  0  0  0
    2.0000    2.0515    0.0000 C   0  0  0  0  0  0  0  0  0  0  0  0
    2.6235    2.8333    0.0000 C   0  0  0  0  0  0  0  0  0  0  0  0
    4.8063    0.4531    0.0000 C   0  0  0  0  0  0  0  0  0  0  0  0
    3.1235   -1.3573    0.0000 C   0  0  0  0  0  0  0  0  0  0  0  0
    3.9895   -1.8573    0.0000 C   0  0  0  0  0  0  0  0  0  0  0  0
    2.2575   -1.8573    0.0000 C   0  0  0  0  0  0  0  0  0  0  0  0
    3.9895   -2.8573    0.0000 C   0  0  0  0  0  0  0  0  0  0  0  0
    4.8835   -1.3226    0.0000 C   0  0  0  0  0  0  0  0  0  0  0  0
    2.2575   -2.8573    0.0000 C   0  0  0  0  0  0  0  0  0  0  0  0
    3.1235   -3.3573    0.0000 C   0  0  0  0  0  0  0  0  0  0  0  0
    4.8835   -3.3920    0.0000 C   0  0  0  0  0  0  0  0  0  0  0  0
    5.7895   -1.8365    0.0000 C   0  0  0  0  0  0  0  0  0  0  0  0
    4.8719   -0.3227    0.0000 C   0  0  0  0  0  0  0  0  0  0  0  0
    3.9550    0.4605    0.0000 H   0  0  0  0  0  0  0  0  0  0  0  0
    1.6025    1.0766    0.0000 H   0  0  0  0  0  0  0  0  0  0  0  0
    2.0846    0.4721    0.0000 H   0  0  0  0  0  0  0  0  0  0  0  0
    4.8056    1.7825    0.0000 H   0  0  0  0  0  0  0  0  0  0  0  0
    4.6335    2.5363    0.0000 H   0  0  0  0  0  0  0  0  0  0  0  0
    1.6134    2.5363    0.0000 H   0  0  0  0  0  0  0  0  0  0  0  0
    1.4414    1.7825    0.0000 H   0  0  0  0  0  0  0  0  0  0  0  0
    2.7614    3.4378    0.0000 H   0  0  0  0  0  0  0  0  0  0  0  0
    2.0649    3.1024    0.0000 H   0  0  0  0  0  0  0  0  0  0  0  0
    3.8925    3.3920    0.0000 H   0  0  0  0  0  0  0  0  0  0  0  0
    4.4197   -0.0316    0.0000 H   0  0  0  0  0  0  0  0  0  0  0  0
    5.2910    0.0665    0.0000 H   0  0  0  0  0  0  0  0  0  0  0  0
    5.1928    0.9378    0.0000 H   0  0  0  0  0  0  0  0  0  0  0  0
    1.7205   -1.5473    0.0000 H   0  0  0  0  0  0  0  0  0  0  0  0
    1.7205   -3.1673    0.0000 H   0  0  0  0  0  0  0  0  0  0  0  0
    3.1235   -3.9773    0.0000 H   0  0  0  0  0  0  0  0  0  0  0  0
    4.8763   -4.0119    0.0000 H   0  0  0  0  0  0  0  0  0  0  0  0
    6.3253   -1.5244    0.0000 H   0  0  0  0  0  0  0  0  0  0  0  0
    5.4918   -0.3155    0.0000 H   0  0  0  0  0  0  0  0  0  0  0  0
    4.8647    0.2973    0.0000 H   0  0  0  0  0  0  0  0  0  0  0  0
    4.2519   -0.3299    0.0000 H   0  0  0  0  0  0  0  0  0  0  0  0
  1  2  2  0  0  0  0
  1  3  2  0  0  0  0
  1  4  1  0  0  0  0
  1 13  1  0  0  0  0
  4  7  1  0  0  0  0
  4  8  1  0  0  0  0
  5  9  1  0  0  0  0
  5 11  1  0  0  0  0
  5 32  1  0  0  0  0
  6 20  2  0  0  0  0
  6 21  1  0  0  0  0
  7  9  1  0  0  0  0
  7 12  1  0  0  0  0
  7 23  1  0  0  0  0
  8 10  1  0  0  0  0
  8 24  1  0  0  0  0
  8 25  1  0  0  0  0
  9 26  1  0  0  0  0
  9 27  1  0  0  0  0
 10 11  1  0  0  0  0
 10 28  1  0  0  0  0
 10 29  1  0  0  0  0
 11 30  1  0  0  0  0
 11 31  1  0  0  0  0
 12 33  1  0  0  0  0
 12 34  1  0  0  0  0
 12 35  1  0  0  0  0
 13 14  1  0  0  0  0
 13 15  2  0  0  0  0
 14 16  2  0  0  0  0
 14 17  1  0  0  0  0
 15 18  1  0  0  0  0
 15 36  1  0  0  0  0
 16 19  1  0  0  0  0
 16 20  1  0  0  0  0
 17 21  2  0  0  0  0
 17 22  1  0  0  0  0
 18 19  2  0  0  0  0
 18 37  1  0  0  0  0
 19 38  1  0  0  0  0
 20 39  1  0  0  0  0
 21 40  1  0  0  0  0
 22 41  1  0  0  0  0
 22 42  1  0  0  0  0
 22 43  1  0  0  0  0
M  END
> <PUBCHEM_COMPOUND_CID>
9885023

> <PUBCHEM_COMPOUND_CANONICALIZED>
1

> <PUBCHEM_CACTVS_COMPLEXITY>
476

> <PUBCHEM_CACTVS_HBOND_ACCEPTOR>
5

> <PUBCHEM_CACTVS_HBOND_DONOR>
1

> <PUBCHEM_CACTVS_ROTATABLE_BOND>
2

> <PUBCHEM_CACTVS_SUBSKEYS>
AAADceB7MABAAAAAAAAAAAAAAAAAAAAAAAA8QAAABYAAAACx8AAAHAQQQAAADCjBWgQ+gdLIEAKgAjBnRHDCgDAxACAI2LgoRJgIYOLA0ZGUIAhgkADIyAcQgMAOgAAAgAAUAAAAAAEAACgAAAAAAAAAAA==

> <PUBCHEM_IUPAC_OPENEYE_NAME>
4-methyl-5-[(2-methyl-1,4-diazepan-1-yl)sulfonyl]isoquinoline

> <PUBCHEM_IUPAC_CAS_NAME>
4-methyl-5-[(2-methyl-1,4-diazepan-1-yl)sulfonyl]isoquinoline

> <PUBCHEM_IUPAC_NAME_MARKUP>
4-methyl-5-[(2-methyl-1,4-diazepan-1-yl)sulfonyl]isoquinoline

> <PUBCHEM_IUPAC_NAME>
4-methyl-5-[(2-methyl-1,4-diazepan-1-yl)sulfonyl]isoquinoline

> <PUBCHEM_IUPAC_SYSTEMATIC_NAME>
4-methyl-5-[(2-methyl-1,4-diazepan-1-yl)sulfonyl]isoquinoline

> <PUBCHEM_IUPAC_TRADITIONAL_NAME>
4-methyl-5-[(2-methyl-1,4-diazepan-1-yl)sulfonyl]isoquinoline

> <PUBCHEM_IUPAC_INCHI>
InChI=1S/C16H21N3O2S/c1-12-9-18-11-14-5-3-6-15(16(12)14)22(20,21)19-8-4-7-17-10-13(19)2/h3,5-6,9,11,13,17H,4,7-8,10H2,1-2H3

> <PUBCHEM_IUPAC_INCHIKEY>
AWDORCFLUJZUQS-UHFFFAOYSA-N

> <PUBCHEM_XLOGP3_AA>
1.7

> <PUBCHEM_EXACT_MASS>
319.13544809

> <PUBCHEM_MOLECULAR_FORMULA>
C16H21N3O2S

> <PUBCHEM_MOLECULAR_WEIGHT>
319.4

> <PUBCHEM_SMILES>
CC1CNCCCN1S(=O)(=O)C2=CC=CC3=C2C(=CN=C3)C

> <PUBCHEM_OPENEYE_CAN_SMILES>
CC1CNCCCN1S(=O)(=O)C2=CC=CC3=C2C(=CN=C3)C

> <PUBCHEM_OPENEYE_ISO_SMILES>
CC1CNCCCN1S(=O)(=O)C2=CC=CC3=C2C(=CN=C3)C

> <PUBCHEM_CACTVS_TPSA>
70.7

> <PUBCHEM_MONOISOTOPIC_WEIGHT>
319.13544809

> <PUBCHEM_TOTAL_CHARGE>
0

> <PUBCHEM_HEAVY_ATOM_COUNT>
22

> <PUBCHEM_ATOM_DEF_STEREO_COUNT>
0

> <PUBCHEM_ATOM_UDEF_STEREO_COUNT>
1

> <PUBCHEM_BOND_DEF_STEREO_COUNT>
0

> <PUBCHEM_BOND_UDEF_STEREO_COUNT>
0

> <PUBCHEM_ISOTOPIC_ATOM_COUNT>
0

> <PUBCHEM_COMPONENT_COUNT>
1

> <PUBCHEM_CACTVS_TAUTO_COUNT>
-1

> <PUBCHEM_COORDINATE_TYPE>
1
5
255

> <PUBCHEM_BONDANNOTATIONS>
13  14  8
13  15  8
14  16  8
14  17  8
15  18  8
16  19  8
16  20  8
17  21  8
18  19  8
6  20  8
6  21  8
7  12  3

$$$$
