50997096
  -OEChem-03202500302D

 56 59  0     0  0  0  0  0  0999 V2000
    3.3660   -4.1830    0.0000 F   0  0  0  0  0  0  0  0  0  0  0  0
    2.0000   -3.8170    0.0000 F   0  0  0  0  0  0  0  0  0  0  0  0
    2.3660   -2.4510    0.0000 F   0  0  0  0  0  0  0  0  0  0  0  0
   10.7166    1.2172    0.0000 O   0  0  0  0  0  0  0  0  0  0  0  0
    5.4641    4.1830    0.0000 O   0  5  0  0  0  0  0  0  0  0  0  0
    6.3301    2.6830    0.0000 O   0  0  0  0  0  0  0  0  0  0  0  0
    8.1282   -1.2928    0.0000 N   0  0  0  0  0  0  0  0  0  0  0  0
    9.8564   -0.2862    0.0000 N   0  0  0  0  0  0  0  0  0  0  0  0
    6.3580   -3.3516    0.0000 N   0  0  0  0  0  0  0  0  0  0  0  0
    4.5981   -0.3170    0.0000 N   0  0  0  0  0  0  0  0  0  0  0  0
    5.4641    3.1830    0.0000 N   0  3  0  0  0  0  0  0  0  0  0  0
    8.9962   -1.7895    0.0000 C   0  0  0  0  0  0  0  0  0  0  0  0
    8.1244   -0.2928    0.0000 C   0  0  0  0  0  0  0  0  0  0  0  0
    9.8602   -1.2862    0.0000 C   0  0  0  0  0  0  0  0  0  0  0  0
    8.9884    0.2105    0.0000 C   0  0  0  0  0  0  0  0  0  0  0  0
    7.2641   -1.7962    0.0000 C   0  0  0  0  0  0  0  0  0  0  0  0
    6.3580   -1.2823    0.0000 C   0  0  0  0  0  0  0  0  0  0  0  0
   10.7205    0.2172    0.0000 C   0  0  0  0  0  0  0  0  0  0  0  0
    5.4641   -1.8170    0.0000 C   0  0  0  0  0  0  0  0  0  0  0  0
    7.2641   -2.8378    0.0000 C   0  0  0  0  0  0  0  0  0  0  0  0
    5.4641   -2.8170    0.0000 C   0  0  0  0  0  0  0  0  0  0  0  0
    4.5981   -1.3170    0.0000 C   0  0  0  0  0  0  0  0  0  0  0  0
   11.5884   -0.2795    0.0000 C   0  0  0  0  0  0  0  0  0  0  0  0
    4.5981   -3.3170    0.0000 C   0  0  0  0  0  0  0  0  0  0  0  0
    3.7320   -1.8170    0.0000 C   0  0  0  0  0  0  0  0  0  0  0  0
    3.7320   -2.8170    0.0000 C   0  0  0  0  0  0  0  0  0  0  0  0
    3.7320    0.1830    0.0000 C   0  0  0  0  0  0  0  0  0  0  0  0
    2.8660   -3.3170    0.0000 C   0  0  0  0  0  0  0  0  0  0  0  0
    3.7320    1.1830    0.0000 C   0  0  0  0  0  0  0  0  0  0  0  0
    4.5981    1.6830    0.0000 C   0  0  0  0  0  0  0  0  0  0  0  0
    2.8660    1.6830    0.0000 C   0  0  0  0  0  0  0  0  0  0  0  0
    4.5981    2.6830    0.0000 C   0  0  0  0  0  0  0  0  0  0  0  0
    2.8660    2.6830    0.0000 C   0  0  0  0  0  0  0  0  0  0  0  0
    3.7320    3.1830    0.0000 C   0  0  0  0  0  0  0  0  0  0  0  0
    8.5994   -2.2660    0.0000 H   0  0  0  0  0  0  0  0  0  0  0  0
    9.3965   -2.2629    0.0000 H   0  0  0  0  0  0  0  0  0  0  0  0
    7.9100    0.2889    0.0000 H   0  0  0  0  0  0  0  0  0  0  0  0
    7.5142   -0.4029    0.0000 H   0  0  0  0  0  0  0  0  0  0  0  0
   10.0745   -1.8680    0.0000 H   0  0  0  0  0  0  0  0  0  0  0  0
   10.4704   -1.1762    0.0000 H   0  0  0  0  0  0  0  0  0  0  0  0
    9.3851    0.6870    0.0000 H   0  0  0  0  0  0  0  0  0  0  0  0
    8.5881    0.6839    0.0000 H   0  0  0  0  0  0  0  0  0  0  0  0
    6.3509   -0.6624    0.0000 H   0  0  0  0  0  0  0  0  0  0  0  0
    7.7998   -3.1499    0.0000 H   0  0  0  0  0  0  0  0  0  0  0  0
    4.5981   -3.9370    0.0000 H   0  0  0  0  0  0  0  0  0  0  0  0
   11.2805   -0.8176    0.0000 H   0  0  0  0  0  0  0  0  0  0  0  0
   12.1266   -0.5874    0.0000 H   0  0  0  0  0  0  0  0  0  0  0  0
   11.8964    0.2586    0.0000 H   0  0  0  0  0  0  0  0  0  0  0  0
    3.1951   -1.5070    0.0000 H   0  0  0  0  0  0  0  0  0  0  0  0
    5.1350   -0.0070    0.0000 H   0  0  0  0  0  0  0  0  0  0  0  0
    3.1215    0.2907    0.0000 H   0  0  0  0  0  0  0  0  0  0  0  0
    3.5200   -0.3996    0.0000 H   0  0  0  0  0  0  0  0  0  0  0  0
    5.1350    1.3730    0.0000 H   0  0  0  0  0  0  0  0  0  0  0  0
    2.3291    1.3730    0.0000 H   0  0  0  0  0  0  0  0  0  0  0  0
    2.3291    2.9930    0.0000 H   0  0  0  0  0  0  0  0  0  0  0  0
    3.7320    3.8030    0.0000 H   0  0  0  0  0  0  0  0  0  0  0  0
  1 28  1  0  0  0  0
  2 28  1  0  0  0  0
  3 28  1  0  0  0  0
  4 18  2  0  0  0  0
  5 11  1  0  0  0  0
  6 11  2  0  0  0  0
  7 12  1  0  0  0  0
  7 13  1  0  0  0  0
  7 16  1  0  0  0  0
  8 14  1  0  0  0  0
  8 15  1  0  0  0  0
  8 18  1  0  0  0  0
  9 20  2  0  0  0  0
  9 21  1  0  0  0  0
 10 22  1  0  0  0  0
 10 27  1  0  0  0  0
 10 50  1  0  0  0  0
 11 32  1  0  0  0  0
 12 14  1  0  0  0  0
 12 35  1  0  0  0  0
 12 36  1  0  0  0  0
 13 15  1  0  0  0  0
 13 37  1  0  0  0  0
 13 38  1  0  0  0  0
 14 39  1  0  0  0  0
 14 40  1  0  0  0  0
 15 41  1  0  0  0  0
 15 42  1  0  0  0  0
 16 17  2  0  0  0  0
 16 20  1  0  0  0  0
 17 19  1  0  0  0  0
 17 43  1  0  0  0  0
 18 23  1  0  0  0  0
 19 21  2  0  0  0  0
 19 22  1  0  0  0  0
 20 44  1  0  0  0  0
 21 24  1  0  0  0  0
 22 25  2  0  0  0  0
 23 46  1  0  0  0  0
 23 47  1  0  0  0  0
 23 48  1  0  0  0  0
 24 26  2  0  0  0  0
 24 45  1  0  0  0  0
 25 26  1  0  0  0  0
 25 49  1  0  0  0  0
 26 28  1  0  0  0  0
 27 29  1  0  0  0  0
 27 51  1  0  0  0  0
 27 52  1  0  0  0  0
 29 30  2  0  0  0  0
 29 31  1  0  0  0  0
 30 32  1  0  0  0  0
 30 53  1  0  0  0  0
 31 33  2  0  0  0  0
 31 54  1  0  0  0  0
 32 34  2  0  0  0  0
 33 34  1  0  0  0  0
 33 55  1  0  0  0  0
 34 56  1  0  0  0  0
M  CHG  2   5  -1  11   1
M  END
> <PUBCHEM_COMPOUND_CID>
50997096

> <PUBCHEM_COMPOUND_CANONICALIZED>
1

> <PUBCHEM_CACTVS_COMPLEXITY>
726

> <PUBCHEM_CACTVS_HBOND_ACCEPTOR>
9

> <PUBCHEM_CACTVS_HBOND_DONOR>
1

> <PUBCHEM_CACTVS_ROTATABLE_BOND>
4

> <PUBCHEM_CACTVS_SUBSKEYS>
AAADceB7sYAAAAAAAAAAAAAAAAAAAAAAAAA8eIEAAAAAAACx9AAAHwAUAAAADAjBnhQ+wPPYUACpAzV3VwCCgCAxEiAo2KA4dJoIYOLA0dGUJAhglgDIyAcQgMAOQAAAQAQCAACAAACACAQAAAAAAAAAAA==

> <PUBCHEM_IUPAC_OPENEYE_NAME>
1-[4-[5-[(3-nitrophenyl)methylamino]-7-(trifluoromethyl)-3-quinolyl]piperazin-1-yl]ethanone

> <PUBCHEM_IUPAC_CAS_NAME>
1-[4-[5-[(3-nitrophenyl)methylamino]-7-(trifluoromethyl)-3-quinolinyl]-1-piperazinyl]ethanone

> <PUBCHEM_IUPAC_NAME_MARKUP>
1-[4-[5-[(3-nitrophenyl)methylamino]-7-(trifluoromethyl)quinolin-3-yl]piperazin-1-yl]ethanone

> <PUBCHEM_IUPAC_NAME>
1-[4-[5-[(3-nitrophenyl)methylamino]-7-(trifluoromethyl)quinolin-3-yl]piperazin-1-yl]ethanone

> <PUBCHEM_IUPAC_SYSTEMATIC_NAME>
1-[4-[5-[(3-nitrophenyl)methylamino]-7-(trifluoromethyl)quinolin-3-yl]piperazin-1-yl]ethanone

> <PUBCHEM_IUPAC_TRADITIONAL_NAME>
1-[4-[5-[(3-nitrobenzyl)amino]-7-(trifluoromethyl)-3-quinolyl]piperazino]ethanone

> <PUBCHEM_IUPAC_INCHI>
InChI=1S/C23H22F3N5O3/c1-15(32)29-5-7-30(8-6-29)19-12-20-21(10-17(23(24,25)26)11-22(20)28-14-19)27-13-16-3-2-4-18(9-16)31(33)34/h2-4,9-12,14,27H,5-8,13H2,1H3

> <PUBCHEM_IUPAC_INCHIKEY>
DORMVCLDXDMKMM-UHFFFAOYSA-N

> <PUBCHEM_XLOGP3_AA>
3.8

> <PUBCHEM_EXACT_MASS>
473.16747407

> <PUBCHEM_MOLECULAR_FORMULA>
C23H22F3N5O3

> <PUBCHEM_MOLECULAR_WEIGHT>
473.4

> <PUBCHEM_SMILES>
CC(=O)N1CCN(CC1)C2=CC3=C(C=C(C=C3NCC4=CC(=CC=C4)[N+](=O)[O-])C(F)(F)F)N=C2

> <PUBCHEM_OPENEYE_CAN_SMILES>
CC(=O)N1CCN(CC1)C2=CC3=C(C=C(C=C3NCC4=CC(=CC=C4)[N+](=O)[O-])C(F)(F)F)N=C2

> <PUBCHEM_OPENEYE_ISO_SMILES>
CC(=O)N1CCN(CC1)C2=CC3=C(C=C(C=C3NCC4=CC(=CC=C4)[N+](=O)[O-])C(F)(F)F)N=C2

> <PUBCHEM_CACTVS_TPSA>
94.3

> <PUBCHEM_MONOISOTOPIC_WEIGHT>
473.16747407

> <PUBCHEM_TOTAL_CHARGE>
0

> <PUBCHEM_HEAVY_ATOM_COUNT>
34

> <PUBCHEM_ATOM_DEF_STEREO_COUNT>
0

> <PUBCHEM_ATOM_UDEF_STEREO_COUNT>
0

> <PUBCHEM_BOND_DEF_STEREO_COUNT>
0

> <PUBCHEM_BOND_UDEF_STEREO_COUNT>
0

> <PUBCHEM_ISOTOPIC_ATOM_COUNT>
0

> <PUBCHEM_COMPONENT_COUNT>
1

> <PUBCHEM_CACTVS_TAUTO_COUNT>
-1

> <PUBCHEM_COORDINATE_TYPE>
1
5
255

> <PUBCHEM_BONDANNOTATIONS>
16  17  8
16  20  8
17  19  8
19  21  8
19  22  8
21  24  8
22  25  8
24  26  8
25  26  8
29  30  8
29  31  8
30  32  8
31  33  8
32  34  8
33  34  8
9  20  8
9  21  8

$$$$
