49830892
  -OEChem-03202501472D

 42 44  0     1  0  0  0  0  0999 V2000
    6.1595    1.4599    0.0000 F   0  0  0  0  0  0  0  0  0  0  0  0
    3.4013   -2.4945    0.0000 O   0  0  0  0  0  0  0  0  0  0  0  0
    9.6400    2.4945    0.0000 O   0  0  0  0  0  0  0  0  0  0  0  0
   12.2896    0.9874    0.0000 O   0  0  0  0  0  0  0  0  0  0  0  0
   11.4178    2.4841    0.0000 O   0  0  0  0  0  0  0  0  0  0  0  0
    6.1595   -0.5401    0.0000 N   0  0  3  0  0  0  0  0  0  0  0  0
    3.5823   -0.7720    0.0000 N   0  0  0  0  0  0  0  0  0  0  0  0
    7.8916   -0.5401    0.0000 N   0  0  0  0  0  0  0  0  0  0  0  0
    9.6515   -0.5747    0.0000 N   0  0  0  0  0  0  0  0  0  0  0  0
    4.5768   -0.8765    0.0000 C   0  0  3  0  0  0  0  0  0  0  0  0
    5.0768   -1.7425    0.0000 C   0  0  0  0  0  0  0  0  0  0  0  0
    5.2460   -0.1333    0.0000 C   0  0  0  0  0  0  0  0  0  0  0  0
    6.0550   -1.5346    0.0000 C   0  0  0  0  0  0  0  0  0  0  0  0
    7.0255   -0.0401    0.0000 C   0  0  0  0  0  0  0  0  0  0  0  0
    7.0255    0.9599    0.0000 C   0  0  0  0  0  0  0  0  0  0  0  0
    7.8916    1.4599    0.0000 C   0  0  0  0  0  0  0  0  0  0  0  0
    2.9945   -1.5810    0.0000 C   0  0  0  0  0  0  0  0  0  0  0  0
    8.7576    0.9599    0.0000 C   0  0  0  0  0  0  0  0  0  0  0  0
    8.7576   -0.0401    0.0000 C   0  0  0  0  0  0  0  0  0  0  0  0
    7.8916    2.4599    0.0000 C   0  0  0  0  0  0  0  0  0  0  0  0
    9.6515    1.4946    0.0000 C   0  0  0  0  0  0  0  0  0  0  0  0
    2.0000   -1.4764    0.0000 C   0  0  0  0  0  0  0  0  0  0  0  0
   10.5576    0.9807    0.0000 C   0  0  0  0  0  0  0  0  0  0  0  0
   10.5576   -0.0609    0.0000 C   0  0  0  0  0  0  0  0  0  0  0  0
   11.4217    1.4841    0.0000 C   0  0  0  0  0  0  0  0  0  0  0  0
    4.3546   -0.2977    0.0000 H   0  0  0  0  0  0  0  0  0  0  0  0
    4.5104   -1.9947    0.0000 H   0  0  0  0  0  0  0  0  0  0  0  0
    5.2684   -2.3322    0.0000 H   0  0  0  0  0  0  0  0  0  0  0  0
    5.5560    0.4036    0.0000 H   0  0  0  0  0  0  0  0  0  0  0  0
    4.7444    0.2311    0.0000 H   0  0  0  0  0  0  0  0  0  0  0  0
    6.1198   -2.1512    0.0000 H   0  0  0  0  0  0  0  0  0  0  0  0
    6.6750   -1.5346    0.0000 H   0  0  0  0  0  0  0  0  0  0  0  0
    3.3301   -0.2056    0.0000 H   0  0  0  0  0  0  0  0  0  0  0  0
    8.5116    2.4599    0.0000 H   0  0  0  0  0  0  0  0  0  0  0  0
    7.8916    3.0799    0.0000 H   0  0  0  0  0  0  0  0  0  0  0  0
    7.2716    2.4599    0.0000 H   0  0  0  0  0  0  0  0  0  0  0  0
    9.6444   -1.1947    0.0000 H   0  0  0  0  0  0  0  0  0  0  0  0
    2.0648   -0.8598    0.0000 H   0  0  0  0  0  0  0  0  0  0  0  0
    1.3834   -1.4116    0.0000 H   0  0  0  0  0  0  0  0  0  0  0  0
    1.9352   -2.0930    0.0000 H   0  0  0  0  0  0  0  0  0  0  0  0
   11.0933   -0.3730    0.0000 H   0  0  0  0  0  0  0  0  0  0  0  0
   12.8254    1.2995    0.0000 H   0  0  0  0  0  0  0  0  0  0  0  0
  1 15  1  0  0  0  0
  2 17  2  0  0  0  0
  3 21  2  0  0  0  0
  4 25  1  0  0  0  0
  4 42  1  0  0  0  0
  5 25  2  0  0  0  0
  6 12  1  0  0  0  0
  6 13  1  0  0  0  0
  6 14  1  0  0  0  0
  7 10  1  0  0  0  0
  7 17  1  0  0  0  0
  7 33  1  0  0  0  0
  8 14  1  0  0  0  0
  8 19  2  0  0  0  0
  9 19  1  0  0  0  0
  9 24  1  0  0  0  0
  9 37  1  0  0  0  0
 10 11  1  0  0  0  0
 10 12  1  0  0  0  0
 10 26  1  0  0  0  0
 11 13  1  0  0  0  0
 11 27  1  0  0  0  0
 11 28  1  0  0  0  0
 12 29  1  0  0  0  0
 12 30  1  0  0  0  0
 13 31  1  0  0  0  0
 13 32  1  0  0  0  0
 14 15  2  0  0  0  0
 15 16  1  0  0  0  0
 16 18  2  0  0  0  0
 16 20  1  0  0  0  0
 17 22  1  0  0  0  0
 18 19  1  0  0  0  0
 18 21  1  0  0  0  0
 20 34  1  0  0  0  0
 20 35  1  0  0  0  0
 20 36  1  0  0  0  0
 21 23  1  0  0  0  0
 22 38  1  0  0  0  0
 22 39  1  0  0  0  0
 22 40  1  0  0  0  0
 23 24  2  0  0  0  0
 23 25  1  0  0  0  0
 24 41  1  0  0  0  0
M  END
> <PUBCHEM_COMPOUND_CID>
49830892

> <PUBCHEM_COMPOUND_CANONICALIZED>
1

> <PUBCHEM_CACTVS_COMPLEXITY>
625

> <PUBCHEM_CACTVS_HBOND_ACCEPTOR>
8

> <PUBCHEM_CACTVS_HBOND_DONOR>
3

> <PUBCHEM_CACTVS_ROTATABLE_BOND>
3

> <PUBCHEM_CACTVS_SUBSKEYS>
AAADceB7uQAAAAAAAAAAAAAAAAAAAWAAAAAsQAAAAAAAAACBgAAAHwAQCAAADCzBmgwDuJPIEgCoAoP2fACCgCklACABmKEoRNiIZH7I3JGUYYhstgLI2eeY2TKOgAAAAAAAAAAAAAAAAAAAAAAAAAAAAA==

> <PUBCHEM_IUPAC_OPENEYE_NAME>
7-(3-acetamidopyrrolidin-1-yl)-6-fluoro-5-methyl-4-oxo-1H-1,8-naphthyridine-3-carboxylic acid

> <PUBCHEM_IUPAC_CAS_NAME>
7-(3-acetamido-1-pyrrolidinyl)-6-fluoro-5-methyl-4-oxo-1H-1,8-naphthyridine-3-carboxylic acid

> <PUBCHEM_IUPAC_NAME_MARKUP>
7-(3-acetamidopyrrolidin-1-yl)-6-fluoro-5-methyl-4-oxo-1<I>H</I>-1,8-naphthyridine-3-carboxylic acid

> <PUBCHEM_IUPAC_NAME>
7-(3-acetamidopyrrolidin-1-yl)-6-fluoro-5-methyl-4-oxo-1H-1,8-naphthyridine-3-carboxylic acid

> <PUBCHEM_IUPAC_SYSTEMATIC_NAME>
7-(3-acetamidopyrrolidin-1-yl)-6-fluoranyl-5-methyl-4-oxidanylidene-1H-1,8-naphthyridine-3-carboxylic acid

> <PUBCHEM_IUPAC_TRADITIONAL_NAME>
7-(3-acetamidopyrrolidino)-6-fluoro-4-keto-5-methyl-1H-1,8-naphthyridine-3-carboxylic acid

> <PUBCHEM_IUPAC_INCHI>
InChI=1S/C16H17FN4O4/c1-7-11-13(23)10(16(24)25)5-18-14(11)20-15(12(7)17)21-4-3-9(6-21)19-8(2)22/h5,9H,3-4,6H2,1-2H3,(H,19,22)(H,24,25)(H,18,20,23)

> <PUBCHEM_IUPAC_INCHIKEY>
BZBXKKJGOVUTDG-UHFFFAOYSA-N

> <PUBCHEM_XLOGP3_AA>
1.5

> <PUBCHEM_EXACT_MASS>
348.12338320

> <PUBCHEM_MOLECULAR_FORMULA>
C16H17FN4O4

> <PUBCHEM_MOLECULAR_WEIGHT>
348.33

> <PUBCHEM_SMILES>
CC1=C2C(=O)C(=CNC2=NC(=C1F)N3CCC(C3)NC(=O)C)C(=O)O

> <PUBCHEM_OPENEYE_CAN_SMILES>
CC1=C2C(=O)C(=CNC2=NC(=C1F)N3CCC(C3)NC(=O)C)C(=O)O

> <PUBCHEM_OPENEYE_ISO_SMILES>
CC1=C2C(=O)C(=CNC2=NC(=C1F)N3CCC(C3)NC(=O)C)C(=O)O

> <PUBCHEM_CACTVS_TPSA>
112

> <PUBCHEM_MONOISOTOPIC_WEIGHT>
348.12338320

> <PUBCHEM_TOTAL_CHARGE>
0

> <PUBCHEM_HEAVY_ATOM_COUNT>
25

> <PUBCHEM_ATOM_DEF_STEREO_COUNT>
0

> <PUBCHEM_ATOM_UDEF_STEREO_COUNT>
1

> <PUBCHEM_BOND_DEF_STEREO_COUNT>
0

> <PUBCHEM_BOND_UDEF_STEREO_COUNT>
0

> <PUBCHEM_ISOTOPIC_ATOM_COUNT>
0

> <PUBCHEM_COMPONENT_COUNT>
1

> <PUBCHEM_CACTVS_TAUTO_COUNT>
-1

> <PUBCHEM_COORDINATE_TYPE>
1
5
255

> <PUBCHEM_BONDANNOTATIONS>
14  15  8
15  16  8
16  18  8
18  19  8
18  21  8
21  23  8
23  24  8
10  7  3
8  14  8
8  19  8
9  19  8
9  24  8

$$$$
