10301884
  -OEChem-03202504482D

 68 73  0     0  0  0  0  0  0999 V2000
   10.5387   -1.0982    0.0000 Cl  0  0  0  0  0  0  0  0  0  0  0  0
    7.0468   -2.0435    0.0000 O   0  0  0  0  0  0  0  0  0  0  0  0
    4.4487   -3.5435    0.0000 O   0  0  0  0  0  0  0  0  0  0  0  0
    5.3147    0.9565    0.0000 O   0  0  0  0  0  0  0  0  0  0  0  0
    8.8991   -4.2465    0.0000 O   0  0  0  0  0  0  0  0  0  0  0  0
   10.2836   -5.0673    0.0000 O   0  0  0  0  0  0  0  0  0  0  0  0
    3.5827    3.9565    0.0000 N   0  0  0  0  0  0  0  0  0  0  0  0
    8.7952   -2.0781    0.0000 N   0  0  0  0  0  0  0  0  0  0  0  0
    8.8067    0.9912    0.0000 N   0  0  0  0  0  0  0  0  0  0  0  0
    9.7128   -0.5643    0.0000 N   0  0  0  0  0  0  0  0  0  0  0  0
    3.4782    4.9510    0.0000 C   0  0  0  0  0  0  0  0  0  0  0  0
    2.6691    3.5498    0.0000 C   0  0  0  0  0  0  0  0  0  0  0  0
    2.5000    5.1589    0.0000 C   0  0  0  0  0  0  0  0  0  0  0  0
    2.0000    4.2929    0.0000 C   0  0  0  0  0  0  0  0  0  0  0  0
    4.4487    3.4565    0.0000 C   0  0  0  0  0  0  0  0  0  0  0  0
    4.4487    2.4565    0.0000 C   0  0  0  0  0  0  0  0  0  0  0  0
    6.1808   -2.5435    0.0000 C   0  0  0  0  0  0  0  0  0  0  0  0
    6.1808   -3.5435    0.0000 C   0  0  0  0  0  0  0  0  0  0  0  0
    5.3147   -2.0435    0.0000 C   0  0  0  0  0  0  0  0  0  0  0  0
    5.3147    1.9565    0.0000 C   0  0  0  0  0  0  0  0  0  0  0  0
    5.3147   -4.0435    0.0000 C   0  0  0  0  0  0  0  0  0  0  0  0
    4.4487   -2.5435    0.0000 C   0  0  0  0  0  0  0  0  0  0  0  0
    7.0468   -1.0435    0.0000 C   0  0  0  0  0  0  0  0  0  0  0  0
    6.1808    0.4565    0.0000 C   0  0  0  0  0  0  0  0  0  0  0  0
    7.9128   -0.5435    0.0000 C   0  0  0  0  0  0  0  0  0  0  0  0
    6.1808   -0.5435    0.0000 C   0  0  0  0  0  0  0  0  0  0  0  0
    7.9128    0.4565    0.0000 C   0  0  0  0  0  0  0  0  0  0  0  0
    7.0468    0.9565    0.0000 C   0  0  0  0  0  0  0  0  0  0  0  0
    8.8067   -1.0782    0.0000 C   0  0  0  0  0  0  0  0  0  0  0  0
    9.6554   -2.5881    0.0000 C   0  0  0  0  0  0  0  0  0  0  0  0
    9.7128    0.4773    0.0000 C   0  0  0  0  0  0  0  0  0  0  0  0
    9.6438   -3.5880    0.0000 C   0  0  0  0  0  0  0  0  0  0  0  0
   10.5040   -4.0980    0.0000 C   0  0  0  0  0  0  0  0  0  0  0  0
   10.5271   -2.0981    0.0000 C   0  0  0  0  0  0  0  0  0  0  0  0
   11.3757   -3.6080    0.0000 C   0  0  0  0  0  0  0  0  0  0  0  0
   11.3873   -2.6081    0.0000 C   0  0  0  0  0  0  0  0  0  0  0  0
    9.2937   -5.1589    0.0000 C   0  0  0  0  0  0  0  0  0  0  0  0
    4.0982    4.9510    0.0000 H   0  0  0  0  0  0  0  0  0  0  0  0
    3.5430    5.5676    0.0000 H   0  0  0  0  0  0  0  0  0  0  0  0
    2.1675    3.1853    0.0000 H   0  0  0  0  0  0  0  0  0  0  0  0
    2.9791    3.0128    0.0000 H   0  0  0  0  0  0  0  0  0  0  0  0
    2.6916    5.7486    0.0000 H   0  0  0  0  0  0  0  0  0  0  0  0
    1.9336    5.4111    0.0000 H   0  0  0  0  0  0  0  0  0  0  0  0
    1.4984    4.6573    0.0000 H   0  0  0  0  0  0  0  0  0  0  0  0
    1.5851    3.8322    0.0000 H   0  0  0  0  0  0  0  0  0  0  0  0
    5.0593    3.3488    0.0000 H   0  0  0  0  0  0  0  0  0  0  0  0
    4.6608    4.0391    0.0000 H   0  0  0  0  0  0  0  0  0  0  0  0
    3.8381    2.5642    0.0000 H   0  0  0  0  0  0  0  0  0  0  0  0
    4.2366    1.8739    0.0000 H   0  0  0  0  0  0  0  0  0  0  0  0
    6.1808   -1.9235    0.0000 H   0  0  0  0  0  0  0  0  0  0  0  0
    6.3928   -4.1261    0.0000 H   0  0  0  0  0  0  0  0  0  0  0  0
    6.7913   -3.4358    0.0000 H   0  0  0  0  0  0  0  0  0  0  0  0
    5.7133   -1.5686    0.0000 H   0  0  0  0  0  0  0  0  0  0  0  0
    4.9162   -1.5686    0.0000 H   0  0  0  0  0  0  0  0  0  0  0  0
    5.9253    1.8488    0.0000 H   0  0  0  0  0  0  0  0  0  0  0  0
    5.5268    2.5391    0.0000 H   0  0  0  0  0  0  0  0  0  0  0  0
    4.9162   -4.5184    0.0000 H   0  0  0  0  0  0  0  0  0  0  0  0
    5.7133   -4.5184    0.0000 H   0  0  0  0  0  0  0  0  0  0  0  0
    4.2366   -1.9609    0.0000 H   0  0  0  0  0  0  0  0  0  0  0  0
    3.8381   -2.6512    0.0000 H   0  0  0  0  0  0  0  0  0  0  0  0
    5.6438   -0.8535    0.0000 H   0  0  0  0  0  0  0  0  0  0  0  0
    7.0468    1.5765    0.0000 H   0  0  0  0  0  0  0  0  0  0  0  0
    8.2547   -2.3819    0.0000 H   0  0  0  0  0  0  0  0  0  0  0  0
   10.2485    0.7894    0.0000 H   0  0  0  0  0  0  0  0  0  0  0  0
   11.9091   -3.9242    0.0000 H   0  0  0  0  0  0  0  0  0  0  0  0
   11.9278   -2.3043    0.0000 H   0  0  0  0  0  0  0  0  0  0  0  0
    8.7019   -5.3439    0.0000 H   0  0  0  0  0  0  0  0  0  0  0  0
    9.4154   -5.7669    0.0000 H   0  0  0  0  0  0  0  0  0  0  0  0
  1 34  1  0  0  0  0
  2 17  1  0  0  0  0
  2 23  1  0  0  0  0
  3 21  1  0  0  0  0
  3 22  1  0  0  0  0
  4 20  1  0  0  0  0
  4 24  1  0  0  0  0
  5 32  1  0  0  0  0
  5 37  1  0  0  0  0
  6 33  1  0  0  0  0
  6 37  1  0  0  0  0
  7 11  1  0  0  0  0
  7 12  1  0  0  0  0
  7 15  1  0  0  0  0
  8 29  1  0  0  0  0
  8 30  1  0  0  0  0
  8 63  1  0  0  0  0
  9 27  1  0  0  0  0
  9 31  2  0  0  0  0
 10 29  2  0  0  0  0
 10 31  1  0  0  0  0
 11 13  1  0  0  0  0
 11 38  1  0  0  0  0
 11 39  1  0  0  0  0
 12 14  1  0  0  0  0
 12 40  1  0  0  0  0
 12 41  1  0  0  0  0
 13 14  1  0  0  0  0
 13 42  1  0  0  0  0
 13 43  1  0  0  0  0
 14 44  1  0  0  0  0
 14 45  1  0  0  0  0
 15 16  1  0  0  0  0
 15 46  1  0  0  0  0
 15 47  1  0  0  0  0
 16 20  1  0  0  0  0
 16 48  1  0  0  0  0
 16 49  1  0  0  0  0
 17 18  1  0  0  0  0
 17 19  1  0  0  0  0
 17 50  1  0  0  0  0
 18 21  1  0  0  0  0
 18 51  1  0  0  0  0
 18 52  1  0  0  0  0
 19 22  1  0  0  0  0
 19 53  1  0  0  0  0
 19 54  1  0  0  0  0
 20 55  1  0  0  0  0
 20 56  1  0  0  0  0
 21 57  1  0  0  0  0
 21 58  1  0  0  0  0
 22 59  1  0  0  0  0
 22 60  1  0  0  0  0
 23 25  1  0  0  0  0
 23 26  2  0  0  0  0
 24 26  1  0  0  0  0
 24 28  2  0  0  0  0
 25 27  2  0  0  0  0
 25 29  1  0  0  0  0
 26 61  1  0  0  0  0
 27 28  1  0  0  0  0
 28 62  1  0  0  0  0
 30 32  1  0  0  0  0
 30 34  2  0  0  0  0
 31 64  1  0  0  0  0
 32 33  2  0  0  0  0
 33 35  1  0  0  0  0
 34 36  1  0  0  0  0
 35 36  2  0  0  0  0
 35 65  1  0  0  0  0
 36 66  1  0  0  0  0
 37 67  1  0  0  0  0
 37 68  1  0  0  0  0
M  END
> <PUBCHEM_COMPOUND_CID>
10301884

> <PUBCHEM_COMPOUND_CANONICALIZED>
1

> <PUBCHEM_CACTVS_COMPLEXITY>
712

> <PUBCHEM_CACTVS_HBOND_ACCEPTOR>
9

> <PUBCHEM_CACTVS_HBOND_DONOR>
1

> <PUBCHEM_CACTVS_ROTATABLE_BOND>
9

> <PUBCHEM_CACTVS_SUBSKEYS>
AAADceB7uAAEAAAAAAAAAAAAAAAAAWJAAAA8aIEAAAAAAEix9AAAHgIQAAAADB7hnic1/vfIFACgAyZjZACCiCkxJ6AJ2CA/7pifL2LF+9vnPCrvwB/e6CeQ8C8OICAACwAKUBBAQAAWABSgIAAAAAAAAA==

> <PUBCHEM_IUPAC_OPENEYE_NAME>
N-(5-chloro-1,3-benzodioxol-4-yl)-7-(3-pyrrolidin-1-ylpropoxy)-5-tetrahydropyran-4-yloxy-quinazolin-4-amine

> <PUBCHEM_IUPAC_CAS_NAME>
N-(5-chloro-1,3-benzodioxol-4-yl)-5-(4-oxanyloxy)-7-[3-(1-pyrrolidinyl)propoxy]-4-quinazolinamine

> <PUBCHEM_IUPAC_NAME_MARKUP>
<I>N</I>-(5-chloro-1,3-benzodioxol-4-yl)-5-(oxan-4-yloxy)-7-(3-pyrrolidin-1-ylpropoxy)quinazolin-4-amine

> <PUBCHEM_IUPAC_NAME>
N-(5-chloro-1,3-benzodioxol-4-yl)-5-(oxan-4-yloxy)-7-(3-pyrrolidin-1-ylpropoxy)quinazolin-4-amine

> <PUBCHEM_IUPAC_SYSTEMATIC_NAME>
N-(5-chloranyl-1,3-benzodioxol-4-yl)-5-(oxan-4-yloxy)-7-(3-pyrrolidin-1-ylpropoxy)quinazolin-4-amine

> <PUBCHEM_IUPAC_TRADITIONAL_NAME>
(5-chloro-1,3-benzodioxol-4-yl)-[7-(3-pyrrolidinopropoxy)-5-tetrahydropyran-4-yloxy-quinazolin-4-yl]amine

> <PUBCHEM_IUPAC_INCHI>
InChI=1S/C27H31ClN4O5/c28-20-4-5-22-26(36-17-35-22)25(20)31-27-24-21(29-16-30-27)14-19(34-11-3-10-32-8-1-2-9-32)15-23(24)37-18-6-12-33-13-7-18/h4-5,14-16,18H,1-3,6-13,17H2,(H,29,30,31)

> <PUBCHEM_IUPAC_INCHIKEY>
HLILQABBLFGERM-UHFFFAOYSA-N

> <PUBCHEM_XLOGP3_AA>
5.1

> <PUBCHEM_EXACT_MASS>
526.1982978

> <PUBCHEM_MOLECULAR_FORMULA>
C27H31ClN4O5

> <PUBCHEM_MOLECULAR_WEIGHT>
527.0

> <PUBCHEM_SMILES>
C1CCN(C1)CCCOC2=CC3=C(C(=C2)OC4CCOCC4)C(=NC=N3)NC5=C(C=CC6=C5OCO6)Cl

> <PUBCHEM_OPENEYE_CAN_SMILES>
C1CCN(C1)CCCOC2=CC3=C(C(=C2)OC4CCOCC4)C(=NC=N3)NC5=C(C=CC6=C5OCO6)Cl

> <PUBCHEM_OPENEYE_ISO_SMILES>
C1CCN(C1)CCCOC2=CC3=C(C(=C2)OC4CCOCC4)C(=NC=N3)NC5=C(C=CC6=C5OCO6)Cl

> <PUBCHEM_CACTVS_TPSA>
87.2

> <PUBCHEM_MONOISOTOPIC_WEIGHT>
526.1982978

> <PUBCHEM_TOTAL_CHARGE>
0

> <PUBCHEM_HEAVY_ATOM_COUNT>
37

> <PUBCHEM_ATOM_DEF_STEREO_COUNT>
0

> <PUBCHEM_ATOM_UDEF_STEREO_COUNT>
0

> <PUBCHEM_BOND_DEF_STEREO_COUNT>
0

> <PUBCHEM_BOND_UDEF_STEREO_COUNT>
0

> <PUBCHEM_ISOTOPIC_ATOM_COUNT>
0

> <PUBCHEM_COMPONENT_COUNT>
1

> <PUBCHEM_CACTVS_TAUTO_COUNT>
-1

> <PUBCHEM_COORDINATE_TYPE>
1
5
255

> <PUBCHEM_BONDANNOTATIONS>
10  29  8
10  31  8
23  25  8
23  26  8
24  26  8
24  28  8
25  27  8
25  29  8
27  28  8
30  32  8
30  34  8
32  33  8
33  35  8
34  36  8
35  36  8
9  27  8
9  31  8

$$$$
