9927718
  -OEChem-03202500152D

 36 38  0     0  0  0  0  0  0999 V2000
    5.4641   -2.7825    0.0000 Cl  0  0  0  0  0  0  0  0  0  0  0  0
    5.4071    0.3053    0.0000 S   0  0  0  0  0  0  0  0  0  0  0  0
    4.2846    3.0835    0.0000 O   0  0  0  0  0  0  0  0  0  0  0  0
    5.4641   -1.7825    0.0000 O   0  0  0  0  0  0  0  0  0  0  0  0
    5.6859    2.0654    0.0000 N   0  0  0  0  0  0  0  0  0  0  0  0
    4.0981    1.2564    0.0000 N   0  0  0  0  0  0  0  0  0  0  0  0
    3.7320   -1.7825    0.0000 N   0  0  0  0  0  0  0  0  0  0  0  0
    5.8669    3.7880    0.0000 C   0  0  0  0  0  0  0  0  0  0  0  0
    6.7805    4.1947    0.0000 C   0  0  0  0  0  0  0  0  0  0  0  0
    5.9714    4.7825    0.0000 C   0  0  0  0  0  0  0  0  0  0  0  0
    5.2791    2.9789    0.0000 C   0  0  0  0  0  0  0  0  0  0  0  0
    5.0981    1.2564    0.0000 C   0  0  0  0  0  0  0  0  0  0  0  0
    4.5981   -0.2825    0.0000 C   0  0  0  0  0  0  0  0  0  0  0  0
    3.7891    0.3053    0.0000 C   0  0  0  0  0  0  0  0  0  0  0  0
    3.7320   -2.7825    0.0000 C   0  0  0  0  0  0  0  0  0  0  0  0
    2.8660   -3.2825    0.0000 C   0  0  0  0  0  0  0  0  0  0  0  0
    4.5981   -1.2825    0.0000 C   0  0  0  0  0  0  0  0  0  0  0  0
    4.5981   -3.2825    0.0000 C   0  0  0  0  0  0  0  0  0  0  0  0
    2.8660   -4.2825    0.0000 C   0  0  0  0  0  0  0  0  0  0  0  0
    2.0000   -2.7825    0.0000 C   0  0  0  0  0  0  0  0  0  0  0  0
    4.5981   -4.2825    0.0000 C   0  0  0  0  0  0  0  0  0  0  0  0
    3.7320   -4.7825    0.0000 C   0  0  0  0  0  0  0  0  0  0  0  0
    6.2571    3.3061    0.0000 H   0  0  0  0  0  0  0  0  0  0  0  0
    7.1272    3.6807    0.0000 H   0  0  0  0  0  0  0  0  0  0  0  0
    7.2264    4.6254    0.0000 H   0  0  0  0  0  0  0  0  0  0  0  0
    6.2432    5.3397    0.0000 H   0  0  0  0  0  0  0  0  0  0  0  0
    5.3755    4.9534    0.0000 H   0  0  0  0  0  0  0  0  0  0  0  0
    6.3025    2.0006    0.0000 H   0  0  0  0  0  0  0  0  0  0  0  0
    3.1994    0.1137    0.0000 H   0  0  0  0  0  0  0  0  0  0  0  0
    3.1951   -1.4725    0.0000 H   0  0  0  0  0  0  0  0  0  0  0  0
    2.3291   -4.5925    0.0000 H   0  0  0  0  0  0  0  0  0  0  0  0
    2.3100   -2.2455    0.0000 H   0  0  0  0  0  0  0  0  0  0  0  0
    1.4631   -2.4725    0.0000 H   0  0  0  0  0  0  0  0  0  0  0  0
    1.6900   -3.3194    0.0000 H   0  0  0  0  0  0  0  0  0  0  0  0
    5.1350   -4.5925    0.0000 H   0  0  0  0  0  0  0  0  0  0  0  0
    3.7320   -5.4025    0.0000 H   0  0  0  0  0  0  0  0  0  0  0  0
  1 18  1  0  0  0  0
  2 12  1  0  0  0  0
  2 13  1  0  0  0  0
  3 11  2  0  0  0  0
  4 17  2  0  0  0  0
  5 11  1  0  0  0  0
  5 12  1  0  0  0  0
  5 28  1  0  0  0  0
  6 12  2  0  0  0  0
  6 14  1  0  0  0  0
  7 15  1  0  0  0  0
  7 17  1  0  0  0  0
  7 30  1  0  0  0  0
  8  9  1  0  0  0  0
  8 10  1  0  0  0  0
  8 11  1  0  0  0  0
  8 23  1  0  0  0  0
  9 10  1  0  0  0  0
  9 24  1  0  0  0  0
  9 25  1  0  0  0  0
 10 26  1  0  0  0  0
 10 27  1  0  0  0  0
 13 14  2  0  0  0  0
 13 17  1  0  0  0  0
 14 29  1  0  0  0  0
 15 16  2  0  0  0  0
 15 18  1  0  0  0  0
 16 19  1  0  0  0  0
 16 20  1  0  0  0  0
 18 21  2  0  0  0  0
 19 22  2  0  0  0  0
 19 31  1  0  0  0  0
 20 32  1  0  0  0  0
 20 33  1  0  0  0  0
 20 34  1  0  0  0  0
 21 22  1  0  0  0  0
 21 35  1  0  0  0  0
 22 36  1  0  0  0  0
M  END
> <PUBCHEM_COMPOUND_CID>
9927718

> <PUBCHEM_COMPOUND_CANONICALIZED>
1

> <PUBCHEM_CACTVS_COMPLEXITY>
447

> <PUBCHEM_CACTVS_HBOND_ACCEPTOR>
4

> <PUBCHEM_CACTVS_HBOND_DONOR>
2

> <PUBCHEM_CACTVS_ROTATABLE_BOND>
4

> <PUBCHEM_CACTVS_SUBSKEYS>
AAADccBzMABEAAAAAAAAAAAAGAAAAWAAAAAwAAAAAAAAAAABwAAAHgYQAAAADQrB2iQ/0ZLIEAisAjV3dACC8Kl1DTlJ2A0oRsiIIDrB25HEIIholQLIyOcQgAAOAAAAIAACABAAAABAAAQAIAAAAAAAAA==

> <PUBCHEM_IUPAC_OPENEYE_NAME>
N-(2-chloro-6-methyl-phenyl)-2-(cyclopropanecarbonylamino)thiazole-5-carboxamide

> <PUBCHEM_IUPAC_CAS_NAME>
N-(2-chloro-6-methylphenyl)-2-[[cyclopropyl(oxo)methyl]amino]-5-thiazolecarboxamide

> <PUBCHEM_IUPAC_NAME_MARKUP>
<I>N</I>-(2-chloro-6-methylphenyl)-2-(cyclopropanecarbonylamino)-1,3-thiazole-5-carboxamide

> <PUBCHEM_IUPAC_NAME>
N-(2-chloro-6-methylphenyl)-2-(cyclopropanecarbonylamino)-1,3-thiazole-5-carboxamide

> <PUBCHEM_IUPAC_SYSTEMATIC_NAME>
N-(2-chloranyl-6-methyl-phenyl)-2-(cyclopropylcarbonylamino)-1,3-thiazole-5-carboxamide

> <PUBCHEM_IUPAC_TRADITIONAL_NAME>
N-(2-chloro-6-methyl-phenyl)-2-(cyclopropanecarbonylamino)thiazole-5-carboxamide

> <PUBCHEM_IUPAC_INCHI>
InChI=1S/C15H14ClN3O2S/c1-8-3-2-4-10(16)12(8)18-14(21)11-7-17-15(22-11)19-13(20)9-5-6-9/h2-4,7,9H,5-6H2,1H3,(H,18,21)(H,17,19,20)

> <PUBCHEM_IUPAC_INCHIKEY>
CQZZCFVTEOJWAW-UHFFFAOYSA-N

> <PUBCHEM_XLOGP3_AA>
3.1

> <PUBCHEM_EXACT_MASS>
335.0495256

> <PUBCHEM_MOLECULAR_FORMULA>
C15H14ClN3O2S

> <PUBCHEM_MOLECULAR_WEIGHT>
335.8

> <PUBCHEM_SMILES>
CC1=C(C(=CC=C1)Cl)NC(=O)C2=CN=C(S2)NC(=O)C3CC3

> <PUBCHEM_OPENEYE_CAN_SMILES>
CC1=C(C(=CC=C1)Cl)NC(=O)C2=CN=C(S2)NC(=O)C3CC3

> <PUBCHEM_OPENEYE_ISO_SMILES>
CC1=C(C(=CC=C1)Cl)NC(=O)C2=CN=C(S2)NC(=O)C3CC3

> <PUBCHEM_CACTVS_TPSA>
99.3

> <PUBCHEM_MONOISOTOPIC_WEIGHT>
335.0495256

> <PUBCHEM_TOTAL_CHARGE>
0

> <PUBCHEM_HEAVY_ATOM_COUNT>
22

> <PUBCHEM_ATOM_DEF_STEREO_COUNT>
0

> <PUBCHEM_ATOM_UDEF_STEREO_COUNT>
0

> <PUBCHEM_BOND_DEF_STEREO_COUNT>
0

> <PUBCHEM_BOND_UDEF_STEREO_COUNT>
0

> <PUBCHEM_ISOTOPIC_ATOM_COUNT>
0

> <PUBCHEM_COMPONENT_COUNT>
1

> <PUBCHEM_CACTVS_TAUTO_COUNT>
-1

> <PUBCHEM_COORDINATE_TYPE>
1
5
255

> <PUBCHEM_BONDANNOTATIONS>
13  14  8
15  16  8
15  18  8
16  19  8
18  21  8
19  22  8
2  12  8
2  13  8
21  22  8
6  12  8
6  14  8

$$$$
