44588915
  -OEChem-03202506372D

 65 68  0     0  0  0  0  0  0999 V2000
    4.5981   -0.3472    0.0000 O   0  0  0  0  0  0  0  0  0  0  0  0
   10.5920   -2.5792    0.0000 O   0  0  0  0  0  0  0  0  0  0  0  0
    5.4641   -1.8472    0.0000 N   0  0  0  0  0  0  0  0  0  0  0  0
    9.0084   -0.0425    0.0000 N   0  0  0  0  0  0  0  0  0  0  0  0
    9.0084   -1.6519    0.0000 N   0  0  0  0  0  0  0  0  0  0  0  0
   10.5920   -0.8472    0.0000 N   0  0  0  0  0  0  0  0  0  0  0  0
   16.0920   -1.7132    0.0000 N   0  0  0  0  0  0  0  0  0  0  0  0
    3.7320   -1.8472    0.0000 C   0  0  0  0  0  0  0  0  0  0  0  0
    2.8660   -1.3472    0.0000 C   0  0  0  0  0  0  0  0  0  0  0  0
    3.7320   -2.8472    0.0000 C   0  0  0  0  0  0  0  0  0  0  0  0
    2.0000   -1.8472    0.0000 C   0  0  0  0  0  0  0  0  0  0  0  0
    2.8660   -3.3472    0.0000 C   0  0  0  0  0  0  0  0  0  0  0  0
    2.0000   -2.8472    0.0000 C   0  0  0  0  0  0  0  0  0  0  0  0
    4.5981   -1.3472    0.0000 C   0  0  0  0  0  0  0  0  0  0  0  0
    6.3301   -1.3472    0.0000 C   0  0  0  0  0  0  0  0  0  0  0  0
    5.4641   -2.8472    0.0000 C   0  0  0  0  0  0  0  0  0  0  0  0
    8.0622   -0.3472    0.0000 C   0  0  0  0  0  0  0  0  0  0  0  0
    7.1962   -1.8472    0.0000 C   0  0  0  0  0  0  0  0  0  0  0  0
    8.0622   -1.3472    0.0000 C   0  0  0  0  0  0  0  0  0  0  0  0
    6.3301   -0.3472    0.0000 C   0  0  0  0  0  0  0  0  0  0  0  0
    9.3191    0.9081    0.0000 C   0  0  0  0  0  0  0  0  0  0  0  0
    7.1962    0.1528    0.0000 C   0  0  0  0  0  0  0  0  0  0  0  0
    9.5920   -0.8472    0.0000 C   0  0  0  0  0  0  0  0  0  0  0  0
    8.6512    1.6524    0.0000 C   0  0  0  0  0  0  0  0  0  0  0  0
    8.9619    2.6029    0.0000 C   0  0  0  0  0  0  0  0  0  0  0  0
    8.2940    3.3472    0.0000 C   0  0  0  0  0  0  0  0  0  0  0  0
   11.0920   -1.7132    0.0000 C   0  0  0  0  0  0  0  0  0  0  0  0
   12.0920   -1.7132    0.0000 C   0  0  0  0  0  0  0  0  0  0  0  0
   12.5920   -0.8472    0.0000 C   0  0  0  0  0  0  0  0  0  0  0  0
   12.5920   -2.5792    0.0000 C   0  0  0  0  0  0  0  0  0  0  0  0
   13.5920   -0.8472    0.0000 C   0  0  0  0  0  0  0  0  0  0  0  0
   13.5920   -2.5792    0.0000 C   0  0  0  0  0  0  0  0  0  0  0  0
   14.0920   -1.7132    0.0000 C   0  0  0  0  0  0  0  0  0  0  0  0
   15.0920   -1.7132    0.0000 C   0  0  0  0  0  0  0  0  0  0  0  0
    3.7320   -1.2272    0.0000 H   0  0  0  0  0  0  0  0  0  0  0  0
    3.2646   -0.8722    0.0000 H   0  0  0  0  0  0  0  0  0  0  0  0
    2.4675   -0.8722    0.0000 H   0  0  0  0  0  0  0  0  0  0  0  0
    3.9441   -3.4298    0.0000 H   0  0  0  0  0  0  0  0  0  0  0  0
    4.3426   -2.7395    0.0000 H   0  0  0  0  0  0  0  0  0  0  0  0
    1.7880   -1.2646    0.0000 H   0  0  0  0  0  0  0  0  0  0  0  0
    1.3894   -1.9548    0.0000 H   0  0  0  0  0  0  0  0  0  0  0  0
    2.4675   -3.8221    0.0000 H   0  0  0  0  0  0  0  0  0  0  0  0
    3.2646   -3.8221    0.0000 H   0  0  0  0  0  0  0  0  0  0  0  0
    1.3894   -2.7395    0.0000 H   0  0  0  0  0  0  0  0  0  0  0  0
    1.7880   -3.4298    0.0000 H   0  0  0  0  0  0  0  0  0  0  0  0
    4.8441   -2.8472    0.0000 H   0  0  0  0  0  0  0  0  0  0  0  0
    5.4641   -3.4672    0.0000 H   0  0  0  0  0  0  0  0  0  0  0  0
    6.0841   -2.8472    0.0000 H   0  0  0  0  0  0  0  0  0  0  0  0
    7.1962   -2.4672    0.0000 H   0  0  0  0  0  0  0  0  0  0  0  0
    5.7932   -0.0372    0.0000 H   0  0  0  0  0  0  0  0  0  0  0  0
    9.8660    0.6160    0.0000 H   0  0  0  0  0  0  0  0  0  0  0  0
    9.7016    1.3960    0.0000 H   0  0  0  0  0  0  0  0  0  0  0  0
    7.1962    0.7728    0.0000 H   0  0  0  0  0  0  0  0  0  0  0  0
    8.1043    1.9444    0.0000 H   0  0  0  0  0  0  0  0  0  0  0  0
    8.2687    1.1645    0.0000 H   0  0  0  0  0  0  0  0  0  0  0  0
    9.5088    2.3109    0.0000 H   0  0  0  0  0  0  0  0  0  0  0  0
    9.3444    3.0908    0.0000 H   0  0  0  0  0  0  0  0  0  0  0  0
   10.9020   -0.3103    0.0000 H   0  0  0  0  0  0  0  0  0  0  0  0
    8.7555    3.7612    0.0000 H   0  0  0  0  0  0  0  0  0  0  0  0
    7.8800    3.8087    0.0000 H   0  0  0  0  0  0  0  0  0  0  0  0
    7.8326    2.9331    0.0000 H   0  0  0  0  0  0  0  0  0  0  0  0
   12.2820   -0.3103    0.0000 H   0  0  0  0  0  0  0  0  0  0  0  0
   12.2820   -3.1162    0.0000 H   0  0  0  0  0  0  0  0  0  0  0  0
   13.9020   -0.3103    0.0000 H   0  0  0  0  0  0  0  0  0  0  0  0
   13.9020   -3.1162    0.0000 H   0  0  0  0  0  0  0  0  0  0  0  0
  1 14  2  0  0  0  0
  2 27  2  0  0  0  0
  3 14  1  0  0  0  0
  3 15  1  0  0  0  0
  3 16  1  0  0  0  0
  4 17  1  0  0  0  0
  4 21  1  0  0  0  0
  4 23  1  0  0  0  0
  5 19  1  0  0  0  0
  5 23  2  0  0  0  0
  6 23  1  0  0  0  0
  6 27  1  0  0  0  0
  6 58  1  0  0  0  0
  7 34  3  0  0  0  0
  8  9  1  0  0  0  0
  8 10  1  0  0  0  0
  8 14  1  0  0  0  0
  8 35  1  0  0  0  0
  9 11  1  0  0  0  0
  9 36  1  0  0  0  0
  9 37  1  0  0  0  0
 10 12  1  0  0  0  0
 10 38  1  0  0  0  0
 10 39  1  0  0  0  0
 11 13  1  0  0  0  0
 11 40  1  0  0  0  0
 11 41  1  0  0  0  0
 12 13  1  0  0  0  0
 12 42  1  0  0  0  0
 12 43  1  0  0  0  0
 13 44  1  0  0  0  0
 13 45  1  0  0  0  0
 15 18  2  0  0  0  0
 15 20  1  0  0  0  0
 16 46  1  0  0  0  0
 16 47  1  0  0  0  0
 16 48  1  0  0  0  0
 17 19  2  0  0  0  0
 17 22  1  0  0  0  0
 18 19  1  0  0  0  0
 18 49  1  0  0  0  0
 20 22  2  0  0  0  0
 20 50  1  0  0  0  0
 21 24  1  0  0  0  0
 21 51  1  0  0  0  0
 21 52  1  0  0  0  0
 22 53  1  0  0  0  0
 24 25  1  0  0  0  0
 24 54  1  0  0  0  0
 24 55  1  0  0  0  0
 25 26  1  0  0  0  0
 25 56  1  0  0  0  0
 25 57  1  0  0  0  0
 26 59  1  0  0  0  0
 26 60  1  0  0  0  0
 26 61  1  0  0  0  0
 27 28  1  0  0  0  0
 28 29  2  0  0  0  0
 28 30  1  0  0  0  0
 29 31  1  0  0  0  0
 29 62  1  0  0  0  0
 30 32  2  0  0  0  0
 30 63  1  0  0  0  0
 31 33  2  0  0  0  0
 31 64  1  0  0  0  0
 32 33  1  0  0  0  0
 32 65  1  0  0  0  0
 33 34  1  0  0  0  0
M  END
> <PUBCHEM_COMPOUND_CID>
44588915

> <PUBCHEM_COMPOUND_CANONICALIZED>
1

> <PUBCHEM_CACTVS_COMPLEXITY>
749

> <PUBCHEM_CACTVS_HBOND_ACCEPTOR>
4

> <PUBCHEM_CACTVS_HBOND_DONOR>
1

> <PUBCHEM_CACTVS_ROTATABLE_BOND>
7

> <PUBCHEM_CACTVS_SUBSKEYS>
AAADceB7sAAAAAAAAAAAAAAAAAAAAWAAAAAwYMAAAAAAAFgB9AAAHgAQAAAADQjBngQz0LfMEAC4ByVydACigC0lEqAJ2CE4dNiI6LLA3dGUJQhohwLIya8YiACOQACAAAQAACCAAQAACAAAQAAAAAAAAA==

> <PUBCHEM_IUPAC_OPENEYE_NAME>
N-[1-butyl-5-[cyclohexanecarbonyl(methyl)amino]benzimidazol-2-yl]-4-cyano-benzamide

> <PUBCHEM_IUPAC_CAS_NAME>
N-[1-butyl-5-[[cyclohexyl(oxo)methyl]-methylamino]-2-benzimidazolyl]-4-cyanobenzamide

> <PUBCHEM_IUPAC_NAME_MARKUP>
<I>N</I>-[1-butyl-5-[cyclohexanecarbonyl(methyl)amino]benzimidazol-2-yl]-4-cyanobenzamide

> <PUBCHEM_IUPAC_NAME>
N-[1-butyl-5-[cyclohexanecarbonyl(methyl)amino]benzimidazol-2-yl]-4-cyanobenzamide

> <PUBCHEM_IUPAC_SYSTEMATIC_NAME>
N-[1-butyl-5-[cyclohexylcarbonyl(methyl)amino]benzimidazol-2-yl]-4-cyano-benzamide

> <PUBCHEM_IUPAC_TRADITIONAL_NAME>
N-[1-butyl-5-[cyclohexanecarbonyl(methyl)amino]benzimidazol-2-yl]-4-cyano-benzamide

> <PUBCHEM_IUPAC_INCHI>
InChI=1S/C27H31N5O2/c1-3-4-16-32-24-15-14-22(31(2)26(34)21-8-6-5-7-9-21)17-23(24)29-27(32)30-25(33)20-12-10-19(18-28)11-13-20/h10-15,17,21H,3-9,16H2,1-2H3,(H,29,30,33)

> <PUBCHEM_IUPAC_INCHIKEY>
SUULIUKTZNKMMB-UHFFFAOYSA-N

> <PUBCHEM_XLOGP3_AA>
5

> <PUBCHEM_EXACT_MASS>
457.24777525

> <PUBCHEM_MOLECULAR_FORMULA>
C27H31N5O2

> <PUBCHEM_MOLECULAR_WEIGHT>
457.6

> <PUBCHEM_SMILES>
CCCCN1C2=C(C=C(C=C2)N(C)C(=O)C3CCCCC3)N=C1NC(=O)C4=CC=C(C=C4)C#N

> <PUBCHEM_OPENEYE_CAN_SMILES>
CCCCN1C2=C(C=C(C=C2)N(C)C(=O)C3CCCCC3)N=C1NC(=O)C4=CC=C(C=C4)C#N

> <PUBCHEM_OPENEYE_ISO_SMILES>
CCCCN1C2=C(C=C(C=C2)N(C)C(=O)C3CCCCC3)N=C1NC(=O)C4=CC=C(C=C4)C#N

> <PUBCHEM_CACTVS_TPSA>
91

> <PUBCHEM_MONOISOTOPIC_WEIGHT>
457.24777525

> <PUBCHEM_TOTAL_CHARGE>
0

> <PUBCHEM_HEAVY_ATOM_COUNT>
34

> <PUBCHEM_ATOM_DEF_STEREO_COUNT>
0

> <PUBCHEM_ATOM_UDEF_STEREO_COUNT>
0

> <PUBCHEM_BOND_DEF_STEREO_COUNT>
0

> <PUBCHEM_BOND_UDEF_STEREO_COUNT>
0

> <PUBCHEM_ISOTOPIC_ATOM_COUNT>
0

> <PUBCHEM_COMPONENT_COUNT>
1

> <PUBCHEM_CACTVS_TAUTO_COUNT>
-1

> <PUBCHEM_COORDINATE_TYPE>
1
5
255

> <PUBCHEM_BONDANNOTATIONS>
15  18  8
15  20  8
17  19  8
17  22  8
18  19  8
20  22  8
28  29  8
28  30  8
29  31  8
30  32  8
31  33  8
32  33  8
4  17  8
4  23  8
5  19  8
5  23  8

$$$$
