6539560
  -OEChem-03202510472D

 44 46  0     0  0  0  0  0  0999 V2000
    4.5981    0.5843    0.0000 F   0  0  0  0  0  0  0  0  0  0  0  0
    2.8660    1.5843    0.0000 F   0  0  0  0  0  0  0  0  0  0  0  0
    9.2334   -0.6985    0.0000 O   0  0  0  0  0  0  0  0  0  0  0  0
   11.1439    2.3592    0.0000 N   0  0  0  0  0  0  0  0  0  0  0  0
    7.5870   -0.1605    0.0000 N   0  0  0  0  0  0  0  0  0  0  0  0
    7.2764   -2.7204    0.0000 N   0  0  0  0  0  0  0  0  0  0  0  0
    7.8600   -1.9157    0.0000 N   0  0  0  0  0  0  0  0  0  0  0  0
    5.4641   -2.9157    0.0000 N   0  0  0  0  0  0  0  0  0  0  0  0
    4.5981   -2.4157    0.0000 N   0  0  0  0  0  0  0  0  0  0  0  0
    9.8547    1.2025    0.0000 C   0  0  0  0  0  0  0  0  0  0  0  0
   10.1653    2.1530    0.0000 C   0  0  0  0  0  0  0  0  0  0  0  0
    8.8762    0.9963    0.0000 C   0  0  0  0  0  0  0  0  0  0  0  0
    8.5655    0.0458    0.0000 C   0  0  0  0  0  0  0  0  0  0  0  0
    6.3301   -1.4157    0.0000 C   0  0  0  0  0  0  0  0  0  0  0  0
    7.2764   -1.1110    0.0000 C   0  0  0  0  0  0  0  0  0  0  0  0
    6.3301   -2.4157    0.0000 C   0  0  0  0  0  0  0  0  0  0  0  0
   11.4545    3.3098    0.0000 C   0  0  0  0  0  0  0  0  0  0  0  0
   11.8117    1.6149    0.0000 C   0  0  0  0  0  0  0  0  0  0  0  0
    5.4641   -0.9157    0.0000 C   0  0  0  0  0  0  0  0  0  0  0  0
    4.5981   -1.4157    0.0000 C   0  0  0  0  0  0  0  0  0  0  0  0
    3.7320   -0.9157    0.0000 C   0  0  0  0  0  0  0  0  0  0  0  0
    3.7320    0.0843    0.0000 C   0  0  0  0  0  0  0  0  0  0  0  0
    2.8660   -1.4157    0.0000 C   0  0  0  0  0  0  0  0  0  0  0  0
    2.8660    0.5843    0.0000 C   0  0  0  0  0  0  0  0  0  0  0  0
    2.0000   -0.9157    0.0000 C   0  0  0  0  0  0  0  0  0  0  0  0
    2.0000    0.0843    0.0000 C   0  0  0  0  0  0  0  0  0  0  0  0
    9.8752    0.5828    0.0000 H   0  0  0  0  0  0  0  0  0  0  0  0
   10.4685    1.1152    0.0000 H   0  0  0  0  0  0  0  0  0  0  0  0
   10.1448    2.7727    0.0000 H   0  0  0  0  0  0  0  0  0  0  0  0
    9.5515    2.2404    0.0000 H   0  0  0  0  0  0  0  0  0  0  0  0
    8.8556    1.6159    0.0000 H   0  0  0  0  0  0  0  0  0  0  0  0
    8.2624    1.0836    0.0000 H   0  0  0  0  0  0  0  0  0  0  0  0
    7.1730    0.3010    0.0000 H   0  0  0  0  0  0  0  0  0  0  0  0
    5.4641   -0.2957    0.0000 H   0  0  0  0  0  0  0  0  0  0  0  0
   12.0438    3.1172    0.0000 H   0  0  0  0  0  0  0  0  0  0  0  0
   11.6471    3.8991    0.0000 H   0  0  0  0  0  0  0  0  0  0  0  0
   10.8652    3.5024    0.0000 H   0  0  0  0  0  0  0  0  0  0  0  0
   11.3502    1.2009    0.0000 H   0  0  0  0  0  0  0  0  0  0  0  0
   12.2258    1.1535    0.0000 H   0  0  0  0  0  0  0  0  0  0  0  0
   12.2732    2.0290    0.0000 H   0  0  0  0  0  0  0  0  0  0  0  0
    7.4690   -3.3098    0.0000 H   0  0  0  0  0  0  0  0  0  0  0  0
    2.8660   -2.0357    0.0000 H   0  0  0  0  0  0  0  0  0  0  0  0
    1.4631   -1.2257    0.0000 H   0  0  0  0  0  0  0  0  0  0  0  0
    1.4631    0.3943    0.0000 H   0  0  0  0  0  0  0  0  0  0  0  0
  1 22  1  0  0  0  0
  2 24  1  0  0  0  0
  3 13  2  0  0  0  0
  4 11  1  0  0  0  0
  4 17  1  0  0  0  0
  4 18  1  0  0  0  0
  5 13  1  0  0  0  0
  5 15  1  0  0  0  0
  5 33  1  0  0  0  0
  6  7  1  0  0  0  0
  6 16  1  0  0  0  0
  6 41  1  0  0  0  0
  7 15  2  0  0  0  0
  8  9  1  0  0  0  0
  8 16  2  0  0  0  0
  9 20  2  0  0  0  0
 10 11  1  0  0  0  0
 10 12  1  0  0  0  0
 10 27  1  0  0  0  0
 10 28  1  0  0  0  0
 11 29  1  0  0  0  0
 11 30  1  0  0  0  0
 12 13  1  0  0  0  0
 12 31  1  0  0  0  0
 12 32  1  0  0  0  0
 14 15  1  0  0  0  0
 14 16  1  0  0  0  0
 14 19  2  0  0  0  0
 17 35  1  0  0  0  0
 17 36  1  0  0  0  0
 17 37  1  0  0  0  0
 18 38  1  0  0  0  0
 18 39  1  0  0  0  0
 18 40  1  0  0  0  0
 19 20  1  0  0  0  0
 19 34  1  0  0  0  0
 20 21  1  0  0  0  0
 21 22  2  0  0  0  0
 21 23  1  0  0  0  0
 22 24  1  0  0  0  0
 23 25  2  0  0  0  0
 23 42  1  0  0  0  0
 24 26  2  0  0  0  0
 25 26  1  0  0  0  0
 25 43  1  0  0  0  0
 26 44  1  0  0  0  0
M  END
> <PUBCHEM_COMPOUND_CID>
6539560

> <PUBCHEM_COMPOUND_CANONICALIZED>
1

> <PUBCHEM_CACTVS_COMPLEXITY>
482

> <PUBCHEM_CACTVS_HBOND_ACCEPTOR>
7

> <PUBCHEM_CACTVS_HBOND_DONOR>
2

> <PUBCHEM_CACTVS_ROTATABLE_BOND>
6

> <PUBCHEM_CACTVS_SUBSKEYS>
AAADceB7oYAAAAAAAAAAAAAAAAAAAWAAAAA8QAAAAAAAAFgB/AAAHwAYAAAADAjBnwwzsN/jAACqAydycACSBAKhAgAduSE4ZJiIILLA2dGEpAhwnQLIyAcUgMAOAAAAAAAAAAAAAAAAAAAAAAAAAAAAAA==

> <PUBCHEM_IUPAC_OPENEYE_NAME>
N-[5-(2,3-difluorophenyl)-1H-pyrazolo[3,4-c]pyridazin-3-yl]-4-(dimethylamino)butanamide

> <PUBCHEM_IUPAC_CAS_NAME>
N-[5-(2,3-difluorophenyl)-1H-pyrazolo[3,4-c]pyridazin-3-yl]-4-(dimethylamino)butanamide

> <PUBCHEM_IUPAC_NAME_MARKUP>
<I>N</I>-[5-(2,3-difluorophenyl)-1<I>H</I>-pyrazolo[3,4-c]pyridazin-3-yl]-4-(dimethylamino)butanamide

> <PUBCHEM_IUPAC_NAME>
N-[5-(2,3-difluorophenyl)-1H-pyrazolo[3,4-c]pyridazin-3-yl]-4-(dimethylamino)butanamide

> <PUBCHEM_IUPAC_SYSTEMATIC_NAME>
N-[5-[2,3-bis(fluoranyl)phenyl]-1H-pyrazolo[3,4-c]pyridazin-3-yl]-4-(dimethylamino)butanamide

> <PUBCHEM_IUPAC_TRADITIONAL_NAME>
N-[5-(2,3-difluorophenyl)-1H-pyrazolo[3,4-c]pyridazin-3-yl]-4-(dimethylamino)butyramide

> <PUBCHEM_IUPAC_INCHI>
InChI=1S/C17H18F2N6O/c1-25(2)8-4-7-14(26)20-16-11-9-13(21-23-17(11)24-22-16)10-5-3-6-12(18)15(10)19/h3,5-6,9H,4,7-8H2,1-2H3,(H2,20,22,23,24,26)

> <PUBCHEM_IUPAC_INCHIKEY>
KPVCGFZWGAYXMV-UHFFFAOYSA-N

> <PUBCHEM_XLOGP3_AA>
1.5

> <PUBCHEM_EXACT_MASS>
360.15101554

> <PUBCHEM_MOLECULAR_FORMULA>
C17H18F2N6O

> <PUBCHEM_MOLECULAR_WEIGHT>
360.4

> <PUBCHEM_SMILES>
CN(C)CCCC(=O)NC1=NNC2=NN=C(C=C21)C3=C(C(=CC=C3)F)F

> <PUBCHEM_OPENEYE_CAN_SMILES>
CN(C)CCCC(=O)NC1=NNC2=NN=C(C=C21)C3=C(C(=CC=C3)F)F

> <PUBCHEM_OPENEYE_ISO_SMILES>
CN(C)CCCC(=O)NC1=NNC2=NN=C(C=C21)C3=C(C(=CC=C3)F)F

> <PUBCHEM_CACTVS_TPSA>
86.8

> <PUBCHEM_MONOISOTOPIC_WEIGHT>
360.15101554

> <PUBCHEM_TOTAL_CHARGE>
0

> <PUBCHEM_HEAVY_ATOM_COUNT>
26

> <PUBCHEM_ATOM_DEF_STEREO_COUNT>
0

> <PUBCHEM_ATOM_UDEF_STEREO_COUNT>
0

> <PUBCHEM_BOND_DEF_STEREO_COUNT>
0

> <PUBCHEM_BOND_UDEF_STEREO_COUNT>
0

> <PUBCHEM_ISOTOPIC_ATOM_COUNT>
0

> <PUBCHEM_COMPONENT_COUNT>
1

> <PUBCHEM_CACTVS_TAUTO_COUNT>
-1

> <PUBCHEM_COORDINATE_TYPE>
1
5
255

> <PUBCHEM_BONDANNOTATIONS>
14  15  8
14  16  8
14  19  8
19  20  8
21  22  8
21  23  8
22  24  8
23  25  8
24  26  8
25  26  8
6  16  8
6  7  8
7  15  8
8  16  8
8  9  8
9  20  8

$$$$
