49830621
  -OEChem-03202502472D

 69 74  0     0  0  0  0  0  0999 V2000
    8.8314    7.6303    0.0000 Cl  0  0  0  0  0  0  0  0  0  0  0  0
    5.9209   -4.2406    0.0000 O   0  0  0  0  0  0  0  0  0  0  0  0
    4.8959   -6.6798    0.0000 O   0  0  0  0  0  0  0  0  0  0  0  0
    7.3045    6.0870    0.0000 O   0  0  0  0  0  0  0  0  0  0  0  0
    4.6783   -0.4386    0.0000 N   0  0  0  0  0  0  0  0  0  0  0  0
    5.2619    0.3662    0.0000 N   0  0  0  0  0  0  0  0  0  0  0  0
    2.8660   -0.6338    0.0000 N   0  0  0  0  0  0  0  0  0  0  0  0
    2.0000    0.8662    0.0000 N   0  0  0  0  0  0  0  0  0  0  0  0
    2.8660    2.3662    0.0000 N   0  0  0  0  0  0  0  0  0  0  0  0
    5.9209    4.9730    0.0000 N   0  0  0  0  0  0  0  0  0  0  0  0
    7.6364    4.5121    0.0000 N   0  0  0  0  0  0  0  0  0  0  0  0
    4.9889   -1.3891    0.0000 C   0  0  0  0  0  0  0  0  0  0  0  0
    4.3211   -2.1334    0.0000 C   0  0  0  0  0  0  0  0  0  0  0  0
    5.9674   -1.5953    0.0000 C   0  0  0  0  0  0  0  0  0  0  0  0
    5.6103   -3.2901    0.0000 C   0  0  0  0  0  0  0  0  0  0  0  0
    4.6318   -3.0839    0.0000 C   0  0  0  0  0  0  0  0  0  0  0  0
    6.2781   -2.5458    0.0000 C   0  0  0  0  0  0  0  0  0  0  0  0
    3.7320   -0.1338    0.0000 C   0  0  0  0  0  0  0  0  0  0  0  0
    3.7320    0.8662    0.0000 C   0  0  0  0  0  0  0  0  0  0  0  0
    4.6783    1.1709    0.0000 C   0  0  0  0  0  0  0  0  0  0  0  0
    5.2531   -4.9849    0.0000 C   0  0  0  0  0  0  0  0  0  0  0  0
    2.8660    1.3662    0.0000 C   0  0  0  0  0  0  0  0  0  0  0  0
    4.9889    2.1214    0.0000 C   0  0  0  0  0  0  0  0  0  0  0  0
    5.5637   -5.9355    0.0000 C   0  0  0  0  0  0  0  0  0  0  0  0
    2.0000   -0.1338    0.0000 C   0  0  0  0  0  0  0  0  0  0  0  0
    4.3211    2.8657    0.0000 C   0  0  0  0  0  0  0  0  0  0  0  0
    5.9674    2.3276    0.0000 C   0  0  0  0  0  0  0  0  0  0  0  0
    4.6318    3.8162    0.0000 C   0  0  0  0  0  0  0  0  0  0  0  0
    6.2781    3.2782    0.0000 C   0  0  0  0  0  0  0  0  0  0  0  0
    5.6103    4.0225    0.0000 C   0  0  0  0  0  0  0  0  0  0  0  0
    5.2066   -7.6303    0.0000 C   0  0  0  0  0  0  0  0  0  0  0  0
    6.8994    5.1792    0.0000 C   0  0  0  0  0  0  0  0  0  0  0  0
    8.4995    5.0054    0.0000 C   0  0  0  0  0  0  0  0  0  0  0  0
    8.2933    5.9839    0.0000 C   0  0  0  0  0  0  0  0  0  0  0  0
    9.4500    4.6948    0.0000 C   0  0  0  0  0  0  0  0  0  0  0  0
   10.1943    5.3626    0.0000 C   0  0  0  0  0  0  0  0  0  0  0  0
    9.0376    6.6518    0.0000 C   0  0  0  0  0  0  0  0  0  0  0  0
    9.9881    6.3411    0.0000 C   0  0  0  0  0  0  0  0  0  0  0  0
   11.1448    5.0520    0.0000 C   0  0  0  0  0  0  0  0  0  0  0  0
    5.4030   -0.9276    0.0000 H   0  0  0  0  0  0  0  0  0  0  0  0
    3.9385   -1.6455    0.0000 H   0  0  0  0  0  0  0  0  0  0  0  0
    3.7742   -2.4254    0.0000 H   0  0  0  0  0  0  0  0  0  0  0  0
    6.5812   -1.5079    0.0000 H   0  0  0  0  0  0  0  0  0  0  0  0
    5.9880   -0.9756    0.0000 H   0  0  0  0  0  0  0  0  0  0  0  0
    6.2169   -3.4180    0.0000 H   0  0  0  0  0  0  0  0  0  0  0  0
    4.0179   -3.1712    0.0000 H   0  0  0  0  0  0  0  0  0  0  0  0
    4.6112   -3.7036    0.0000 H   0  0  0  0  0  0  0  0  0  0  0  0
    6.6607   -3.0337    0.0000 H   0  0  0  0  0  0  0  0  0  0  0  0
    6.8250   -2.2538    0.0000 H   0  0  0  0  0  0  0  0  0  0  0  0
    4.8705   -4.4970    0.0000 H   0  0  0  0  0  0  0  0  0  0  0  0
    4.7062   -5.2770    0.0000 H   0  0  0  0  0  0  0  0  0  0  0  0
    5.9463   -6.4234    0.0000 H   0  0  0  0  0  0  0  0  0  0  0  0
    6.1107   -5.6434    0.0000 H   0  0  0  0  0  0  0  0  0  0  0  0
    1.4631   -0.4438    0.0000 H   0  0  0  0  0  0  0  0  0  0  0  0
    3.7144    2.7379    0.0000 H   0  0  0  0  0  0  0  0  0  0  0  0
    6.3815    1.8662    0.0000 H   0  0  0  0  0  0  0  0  0  0  0  0
    2.3291    2.6762    0.0000 H   0  0  0  0  0  0  0  0  0  0  0  0
    3.4030    2.6762    0.0000 H   0  0  0  0  0  0  0  0  0  0  0  0
    4.2177    4.2777    0.0000 H   0  0  0  0  0  0  0  0  0  0  0  0
    6.8848    3.4060    0.0000 H   0  0  0  0  0  0  0  0  0  0  0  0
    4.6172   -7.8229    0.0000 H   0  0  0  0  0  0  0  0  0  0  0  0
    5.3992   -8.2196    0.0000 H   0  0  0  0  0  0  0  0  0  0  0  0
    5.7959   -7.4377    0.0000 H   0  0  0  0  0  0  0  0  0  0  0  0
    5.5069    5.4344    0.0000 H   0  0  0  0  0  0  0  0  0  0  0  0
    9.5779    4.0881    0.0000 H   0  0  0  0  0  0  0  0  0  0  0  0
   10.4496    6.7552    0.0000 H   0  0  0  0  0  0  0  0  0  0  0  0
   10.9522    4.4626    0.0000 H   0  0  0  0  0  0  0  0  0  0  0  0
   11.7341    4.8593    0.0000 H   0  0  0  0  0  0  0  0  0  0  0  0
   11.3374    5.6413    0.0000 H   0  0  0  0  0  0  0  0  0  0  0  0
  1 37  1  0  0  0  0
  2 15  1  0  0  0  0
  2 21  1  0  0  0  0
  3 24  1  0  0  0  0
  3 31  1  0  0  0  0
  4 32  1  0  0  0  0
  4 34  1  0  0  0  0
  5  6  1  0  0  0  0
  5 12  1  0  0  0  0
  5 18  1  0  0  0  0
  6 20  2  0  0  0  0
  7 18  2  0  0  0  0
  7 25  1  0  0  0  0
  8 22  1  0  0  0  0
  8 25  2  0  0  0  0
  9 22  1  0  0  0  0
  9 57  1  0  0  0  0
  9 58  1  0  0  0  0
 10 30  1  0  0  0  0
 10 32  1  0  0  0  0
 10 64  1  0  0  0  0
 11 32  2  0  0  0  0
 11 33  1  0  0  0  0
 12 13  1  0  0  0  0
 12 14  1  0  0  0  0
 12 40  1  0  0  0  0
 13 16  1  0  0  0  0
 13 41  1  0  0  0  0
 13 42  1  0  0  0  0
 14 17  1  0  0  0  0
 14 43  1  0  0  0  0
 14 44  1  0  0  0  0
 15 16  1  0  0  0  0
 15 17  1  0  0  0  0
 15 45  1  0  0  0  0
 16 46  1  0  0  0  0
 16 47  1  0  0  0  0
 17 48  1  0  0  0  0
 17 49  1  0  0  0  0
 18 19  1  0  0  0  0
 19 20  1  0  0  0  0
 19 22  2  0  0  0  0
 20 23  1  0  0  0  0
 21 24  1  0  0  0  0
 21 50  1  0  0  0  0
 21 51  1  0  0  0  0
 23 26  2  0  0  0  0
 23 27  1  0  0  0  0
 24 52  1  0  0  0  0
 24 53  1  0  0  0  0
 25 54  1  0  0  0  0
 26 28  1  0  0  0  0
 26 55  1  0  0  0  0
 27 29  2  0  0  0  0
 27 56  1  0  0  0  0
 28 30  2  0  0  0  0
 28 59  1  0  0  0  0
 29 30  1  0  0  0  0
 29 60  1  0  0  0  0
 31 61  1  0  0  0  0
 31 62  1  0  0  0  0
 31 63  1  0  0  0  0
 33 34  2  0  0  0  0
 33 35  1  0  0  0  0
 34 37  1  0  0  0  0
 35 36  2  0  0  0  0
 35 65  1  0  0  0  0
 36 38  1  0  0  0  0
 36 39  1  0  0  0  0
 37 38  2  0  0  0  0
 38 66  1  0  0  0  0
 39 67  1  0  0  0  0
 39 68  1  0  0  0  0
 39 69  1  0  0  0  0
M  END
> <PUBCHEM_COMPOUND_CID>
49830621

> <PUBCHEM_COMPOUND_CANONICALIZED>
1

> <PUBCHEM_CACTVS_COMPLEXITY>
784

> <PUBCHEM_CACTVS_HBOND_ACCEPTOR>
9

> <PUBCHEM_CACTVS_HBOND_DONOR>
2

> <PUBCHEM_CACTVS_ROTATABLE_BOND>
8

> <PUBCHEM_CACTVS_SUBSKEYS>
AAADceB7sAAEAAAAAAAAAAAAAAAAAWLAAAA8YMEAAAAAAFgB/gAAHgIYAAAADD7hnyY39v7IFECqA6ZzdASSjCs/5+Ad2CG9b9nPLrPF//uPtShs3BPa6ae4yMAOKAAAYAIAGABQgADABAAwAAAAAAAAAA==

> <PUBCHEM_IUPAC_OPENEYE_NAME>
N-[4-[4-amino-1-[4-(2-methoxyethoxy)cyclohexyl]pyrazolo[3,4-d]pyrimidin-3-yl]phenyl]-7-chloro-5-methyl-1,3-benzoxazol-2-amine

> <PUBCHEM_IUPAC_CAS_NAME>
N-[4-[4-amino-1-[4-(2-methoxyethoxy)cyclohexyl]-3-pyrazolo[3,4-d]pyrimidinyl]phenyl]-7-chloro-5-methyl-1,3-benzoxazol-2-amine

> <PUBCHEM_IUPAC_NAME_MARKUP>
<I>N</I>-[4-[4-amino-1-[4-(2-methoxyethoxy)cyclohexyl]pyrazolo[3,4-d]pyrimidin-3-yl]phenyl]-7-chloro-5-methyl-1,3-benzoxazol-2-amine

> <PUBCHEM_IUPAC_NAME>
N-[4-[4-amino-1-[4-(2-methoxyethoxy)cyclohexyl]pyrazolo[3,4-d]pyrimidin-3-yl]phenyl]-7-chloro-5-methyl-1,3-benzoxazol-2-amine

> <PUBCHEM_IUPAC_SYSTEMATIC_NAME>
N-[4-[4-azanyl-1-[4-(2-methoxyethoxy)cyclohexyl]pyrazolo[3,4-d]pyrimidin-3-yl]phenyl]-7-chloranyl-5-methyl-1,3-benzoxazol-2-amine

> <PUBCHEM_IUPAC_TRADITIONAL_NAME>
[4-[4-amino-1-[4-(2-methoxyethoxy)cyclohexyl]pyrazolo[3,4-d]pyrimidin-3-yl]phenyl]-(7-chloro-5-methyl-1,3-benzoxazol-2-yl)amine

> <PUBCHEM_IUPAC_INCHI>
InChI=1S/C28H30ClN7O3/c1-16-13-21(29)25-22(14-16)34-28(39-25)33-18-5-3-17(4-6-18)24-23-26(30)31-15-32-27(23)36(35-24)19-7-9-20(10-8-19)38-12-11-37-2/h3-6,13-15,19-20H,7-12H2,1-2H3,(H,33,34)(H2,30,31,32)

> <PUBCHEM_IUPAC_INCHIKEY>
NFKMFNBKEOQNPZ-UHFFFAOYSA-N

> <PUBCHEM_XLOGP3_AA>
5.2

> <PUBCHEM_EXACT_MASS>
547.2098655

> <PUBCHEM_MOLECULAR_FORMULA>
C28H30ClN7O3

> <PUBCHEM_MOLECULAR_WEIGHT>
548.0

> <PUBCHEM_SMILES>
CC1=CC2=C(C(=C1)Cl)OC(=N2)NC3=CC=C(C=C3)C4=NN(C5=NC=NC(=C45)N)C6CCC(CC6)OCCOC

> <PUBCHEM_OPENEYE_CAN_SMILES>
CC1=CC2=C(C(=C1)Cl)OC(=N2)NC3=CC=C(C=C3)C4=NN(C5=NC=NC(=C45)N)C6CCC(CC6)OCCOC

> <PUBCHEM_OPENEYE_ISO_SMILES>
CC1=CC2=C(C(=C1)Cl)OC(=N2)NC3=CC=C(C=C3)C4=NN(C5=NC=NC(=C45)N)C6CCC(CC6)OCCOC

> <PUBCHEM_CACTVS_TPSA>
126

> <PUBCHEM_MONOISOTOPIC_WEIGHT>
547.2098655

> <PUBCHEM_TOTAL_CHARGE>
0

> <PUBCHEM_HEAVY_ATOM_COUNT>
39

> <PUBCHEM_ATOM_DEF_STEREO_COUNT>
0

> <PUBCHEM_ATOM_UDEF_STEREO_COUNT>
0

> <PUBCHEM_BOND_DEF_STEREO_COUNT>
0

> <PUBCHEM_BOND_UDEF_STEREO_COUNT>
0

> <PUBCHEM_ISOTOPIC_ATOM_COUNT>
0

> <PUBCHEM_COMPONENT_COUNT>
1

> <PUBCHEM_CACTVS_TAUTO_COUNT>
-1

> <PUBCHEM_COORDINATE_TYPE>
1
5
255

> <PUBCHEM_BONDANNOTATIONS>
11  32  8
11  33  8
18  19  8
19  20  8
19  22  8
23  26  8
23  27  8
26  28  8
27  29  8
28  30  8
29  30  8
33  34  8
33  35  8
34  37  8
35  36  8
36  38  8
37  38  8
4  32  8
4  34  8
5  18  8
5  6  8
6  20  8
7  18  8
7  25  8
8  22  8
8  25  8

$$$$
