10207821
  -OEChem-03192523152D

 70 75  0     0  0  0  0  0  0999 V2000
    6.9295    2.2261    0.0000 O   0  0  0  0  0  0  0  0  0  0  0  0
    8.8278   -1.4997    0.0000 O   0  0  0  0  0  0  0  0  0  0  0  0
    2.9926    0.5948    0.0000 O   0  0  0  0  0  0  0  0  0  0  0  0
    5.2241   -2.1403    0.0000 O   0  0  0  0  0  0  0  0  0  0  0  0
    5.0274    2.8441    0.0000 N   0  0  0  0  0  0  0  0  0  0  0  0
    7.4305   -2.0613    0.0000 N   0  0  0  0  0  0  0  0  0  0  0  0
    7.3724    0.7867    0.0000 N   0  0  0  0  0  0  0  0  0  0  0  0
    3.8159   -0.9643    0.0000 N   0  0  0  0  0  0  0  0  0  0  0  0
    4.5274    1.3053    0.0000 C   0  0  0  0  0  0  0  0  0  0  0  0
    6.2716   -0.7741    0.0000 C   0  0  0  0  0  0  0  0  0  0  0  0
    4.7353    0.3271    0.0000 C   0  0  0  0  0  0  0  0  0  0  0  0
    5.3205   -0.4651    0.0000 C   0  0  0  0  0  0  0  0  0  0  0  0
    3.7183    1.8931    0.0000 C   0  0  0  0  0  0  0  0  0  0  0  0
    5.8265   -1.6682    0.0000 C   0  0  0  0  0  0  0  0  0  0  0  0
    4.0274    2.8441    0.0000 C   0  0  0  0  0  0  0  0  0  0  0  0
    6.4948   -2.4105    0.0000 C   0  0  0  0  0  0  0  0  0  0  0  0
    5.3364    1.8931    0.0000 C   0  0  0  0  0  0  0  0  0  0  0  0
    6.4795   -1.7523    0.0000 C   0  0  0  0  0  0  0  0  0  0  0  0
    5.7705    3.5133    0.0000 C   0  0  0  0  0  0  0  0  0  0  0  0
    7.8845   -2.9523    0.0000 C   0  0  0  0  0  0  0  0  0  0  0  0
    3.8073    0.0148    0.0000 C   0  0  0  0  0  0  0  0  0  0  0  0
    4.7492   -1.2603    0.0000 C   0  0  0  0  0  0  0  0  0  0  0  0
    6.7216    3.2042    0.0000 C   0  0  0  0  0  0  0  0  0  0  0  0
    8.7755   -2.4983    0.0000 C   0  0  0  0  0  0  0  0  0  0  0  0
    6.3942    0.5788    0.0000 C   0  0  0  0  0  0  0  0  0  0  0  0
    8.2111    0.2421    0.0000 C   0  0  0  0  0  0  0  0  0  0  0  0
    2.7029    1.6608    0.0000 C   0  0  0  0  0  0  0  0  0  0  0  0
    4.8057   -1.8688    0.0000 C   0  0  0  0  0  0  0  0  0  0  0  0
    3.3424    3.6289    0.0000 C   0  0  0  0  0  0  0  0  0  0  0  0
    6.1886   -3.4047    0.0000 C   0  0  0  0  0  0  0  0  0  0  0  0
    6.1863    1.5570    0.0000 C   0  0  0  0  0  0  0  0  0  0  0  0
    8.1587   -0.7565    0.0000 C   0  0  0  0  0  0  0  0  0  0  0  0
    7.5546    1.7700    0.0000 C   0  0  0  0  0  0  0  0  0  0  0  0
    2.0000    2.4295    0.0000 C   0  0  0  0  0  0  0  0  0  0  0  0
    4.4766   -2.8557    0.0000 C   0  0  0  0  0  0  0  0  0  0  0  0
    2.3219    3.4202    0.0000 C   0  0  0  0  0  0  0  0  0  0  0  0
    5.1727   -3.6289    0.0000 C   0  0  0  0  0  0  0  0  0  0  0  0
    8.4973    2.1038    0.0000 C   0  0  0  0  0  0  0  0  0  0  0  0
    5.9260    1.7015    0.0000 H   0  0  0  0  0  0  0  0  0  0  0  0
    6.0187   -2.1671    0.0000 H   0  0  0  0  0  0  0  0  0  0  0  0
    6.0616    4.0607    0.0000 H   0  0  0  0  0  0  0  0  0  0  0  0
    5.2819    3.8950    0.0000 H   0  0  0  0  0  0  0  0  0  0  0  0
    7.3321   -3.2338    0.0000 H   0  0  0  0  0  0  0  0  0  0  0  0
    8.1660   -3.5047    0.0000 H   0  0  0  0  0  0  0  0  0  0  0  0
    7.3412    3.2259    0.0000 H   0  0  0  0  0  0  0  0  0  0  0  0
    6.8078    3.8182    0.0000 H   0  0  0  0  0  0  0  0  0  0  0  0
    8.9568   -3.0912    0.0000 H   0  0  0  0  0  0  0  0  0  0  0  0
    9.3909   -2.4228    0.0000 H   0  0  0  0  0  0  0  0  0  0  0  0
    5.7878    0.4499    0.0000 H   0  0  0  0  0  0  0  0  0  0  0  0
    6.5231   -0.0276    0.0000 H   0  0  0  0  0  0  0  0  0  0  0  0
    8.8152    0.1026    0.0000 H   0  0  0  0  0  0  0  0  0  0  0  0
    8.4533    0.8128    0.0000 H   0  0  0  0  0  0  0  0  0  0  0  0
    2.5182    1.0690    0.0000 H   0  0  0  0  0  0  0  0  0  0  0  0
    4.3962   -1.4033    0.0000 H   0  0  0  0  0  0  0  0  0  0  0  0
    3.3172   -1.3327    0.0000 H   0  0  0  0  0  0  0  0  0  0  0  0
    3.5408    4.2163    0.0000 H   0  0  0  0  0  0  0  0  0  0  0  0
    6.6088   -3.8606    0.0000 H   0  0  0  0  0  0  0  0  0  0  0  0
    5.8578    2.0828    0.0000 H   0  0  0  0  0  0  0  0  0  0  0  0
    5.6115    1.3247    0.0000 H   0  0  0  0  0  0  0  0  0  0  0  0
    7.5691   -0.5649    0.0000 H   0  0  0  0  0  0  0  0  0  0  0  0
    7.8210   -1.2765    0.0000 H   0  0  0  0  0  0  0  0  0  0  0  0
    7.4523    2.3815    0.0000 H   0  0  0  0  0  0  0  0  0  0  0  0
    6.9346    1.7754    0.0000 H   0  0  0  0  0  0  0  0  0  0  0  0
    1.3940    2.2983    0.0000 H   0  0  0  0  0  0  0  0  0  0  0  0
    3.8696   -2.9823    0.0000 H   0  0  0  0  0  0  0  0  0  0  0  0
    1.9088    3.8825    0.0000 H   0  0  0  0  0  0  0  0  0  0  0  0
    4.9834   -4.2192    0.0000 H   0  0  0  0  0  0  0  0  0  0  0  0
    8.7042    1.5194    0.0000 H   0  0  0  0  0  0  0  0  0  0  0  0
    9.0817    2.3108    0.0000 H   0  0  0  0  0  0  0  0  0  0  0  0
    8.2903    2.6882    0.0000 H   0  0  0  0  0  0  0  0  0  0  0  0
  1 23  1  0  0  0  0
  1 31  1  0  0  0  0
  2 24  1  0  0  0  0
  2 32  1  0  0  0  0
  3 21  2  0  0  0  0
  4 22  2  0  0  0  0
  5 15  1  0  0  0  0
  5 17  1  0  0  0  0
  5 19  1  0  0  0  0
  6 16  1  0  0  0  0
  6 18  1  0  0  0  0
  6 20  1  0  0  0  0
  7 25  1  0  0  0  0
  7 26  1  0  0  0  0
  7 33  1  0  0  0  0
  8 21  1  0  0  0  0
  8 22  1  0  0  0  0
  8 55  1  0  0  0  0
  9 11  1  0  0  0  0
  9 13  1  0  0  0  0
  9 17  2  0  0  0  0
 10 12  1  0  0  0  0
 10 14  1  0  0  0  0
 10 18  2  0  0  0  0
 11 12  2  0  0  0  0
 11 21  1  0  0  0  0
 12 22  1  0  0  0  0
 13 15  1  0  0  0  0
 13 27  2  0  0  0  0
 14 16  1  0  0  0  0
 14 28  2  0  0  0  0
 15 29  2  0  0  0  0
 16 30  2  0  0  0  0
 17 39  1  0  0  0  0
 18 40  1  0  0  0  0
 19 23  1  0  0  0  0
 19 41  1  0  0  0  0
 19 42  1  0  0  0  0
 20 24  1  0  0  0  0
 20 43  1  0  0  0  0
 20 44  1  0  0  0  0
 23 45  1  0  0  0  0
 23 46  1  0  0  0  0
 24 47  1  0  0  0  0
 24 48  1  0  0  0  0
 25 31  1  0  0  0  0
 25 49  1  0  0  0  0
 25 50  1  0  0  0  0
 26 32  1  0  0  0  0
 26 51  1  0  0  0  0
 26 52  1  0  0  0  0
 27 34  1  0  0  0  0
 27 53  1  0  0  0  0
 28 35  1  0  0  0  0
 28 54  1  0  0  0  0
 29 36  1  0  0  0  0
 29 56  1  0  0  0  0
 30 37  1  0  0  0  0
 30 57  1  0  0  0  0
 31 58  1  0  0  0  0
 31 59  1  0  0  0  0
 32 60  1  0  0  0  0
 32 61  1  0  0  0  0
 33 38  1  0  0  0  0
 33 62  1  0  0  0  0
 33 63  1  0  0  0  0
 34 36  2  0  0  0  0
 34 64  1  0  0  0  0
 35 37  2  0  0  0  0
 35 65  1  0  0  0  0
 36 66  1  0  0  0  0
 37 67  1  0  0  0  0
 38 68  1  0  0  0  0
 38 69  1  0  0  0  0
 38 70  1  0  0  0  0
M  END
> <PUBCHEM_COMPOUND_CID>
10207821

> <PUBCHEM_COMPOUND_CANONICALIZED>
1

> <PUBCHEM_CACTVS_COMPLEXITY>
841

> <PUBCHEM_CACTVS_HBOND_ACCEPTOR>
5

> <PUBCHEM_CACTVS_HBOND_DONOR>
1

> <PUBCHEM_CACTVS_ROTATABLE_BOND>
1

> <PUBCHEM_CACTVS_SUBSKEYS>
AAADcfB7uAAAAAAAAAAAAAAAAAAAAWLEAAAwYAAAAAAAAFgB/gAAHgAQAAAADAjhngY+wPPMFACoAzV3VACCgCAxAiAI2CE4ZNgKIPLAlZGHIAhghCDYyQccicCegAAAAAACAAAAAAAAAAQAAAAAAAAAAA==

> <PUBCHEM_IUPAC_OPENEYE_NAME>
20-ethyl-17,23-dioxa-4,14,20,26-tetrazahexacyclo[24.6.1.17,14.02,6.08,13.027,32]tetratriaconta-1(33),2(6),7(34),8,10,12,27,29,31-nonaene-3,5-dione

> <PUBCHEM_IUPAC_CAS_NAME>
20-ethyl-17,23-dioxa-4,14,20,26-tetrazahexacyclo[24.6.1.17,14.02,6.08,13.027,32]tetratriaconta-1(33),2(6),7(34),8,10,12,27,29,31-nonaene-3,5-dione

> <PUBCHEM_IUPAC_NAME_MARKUP>
20-ethyl-17,23-dioxa-4,14,20,26-tetrazahexacyclo[24.6.1.1<SUP>7,14</SUP>.0<SUP>2,6</SUP>.0<SUP>8,13</SUP>.0<SUP>27,32</SUP>]tetratriaconta-1(33),2(6),7(34),8,10,12,27,29,31-nonaene-3,5-dione

> <PUBCHEM_IUPAC_NAME>
20-ethyl-17,23-dioxa-4,14,20,26-tetrazahexacyclo[24.6.1.17,14.02,6.08,13.027,32]tetratriaconta-1(33),2(6),7(34),8,10,12,27,29,31-nonaene-3,5-dione

> <PUBCHEM_IUPAC_SYSTEMATIC_NAME>
20-ethyl-17,23-dioxa-4,14,20,26-tetrazahexacyclo[24.6.1.17,14.02,6.08,13.027,32]tetratriaconta-1(33),2(6),7(34),8,10,12,27,29,31-nonaene-3,5-dione

> <PUBCHEM_IUPAC_TRADITIONAL_NAME>
20-ethyl-17,23-dioxa-4,14,20,26-tetrazahexacyclo[24.6.1.17,14.02,6.08,13.027,32]tetratriaconta-1(33),2(6),7(34),8,10,12,27,29,31-nonaene-3,5-quinone

> <PUBCHEM_IUPAC_INCHI>
InChI=1S/C30H32N4O4/c1-2-32-11-15-37-17-13-33-19-23(21-7-3-5-9-25(21)33)27-28(30(36)31-29(27)35)24-20-34(14-18-38-16-12-32)26-10-6-4-8-22(24)26/h3-10,19-20H,2,11-18H2,1H3,(H,31,35,36)

> <PUBCHEM_IUPAC_INCHIKEY>
SFDFKLDQKSPRHB-UHFFFAOYSA-N

> <PUBCHEM_XLOGP3_AA>
2.5

> <PUBCHEM_EXACT_MASS>
512.24235551

> <PUBCHEM_MOLECULAR_FORMULA>
C30H32N4O4

> <PUBCHEM_MOLECULAR_WEIGHT>
512.6

> <PUBCHEM_SMILES>
CCN1CCOCCN2C=C(C3=CC=CC=C32)C4=C(C5=CN(CCOCC1)C6=CC=CC=C65)C(=O)NC4=O

> <PUBCHEM_OPENEYE_CAN_SMILES>
CCN1CCOCCN2C=C(C3=CC=CC=C32)C4=C(C5=CN(CCOCC1)C6=CC=CC=C65)C(=O)NC4=O

> <PUBCHEM_OPENEYE_ISO_SMILES>
CCN1CCOCCN2C=C(C3=CC=CC=C32)C4=C(C5=CN(CCOCC1)C6=CC=CC=C65)C(=O)NC4=O

> <PUBCHEM_CACTVS_TPSA>
77.7

> <PUBCHEM_MONOISOTOPIC_WEIGHT>
512.24235551

> <PUBCHEM_TOTAL_CHARGE>
0

> <PUBCHEM_HEAVY_ATOM_COUNT>
38

> <PUBCHEM_ATOM_DEF_STEREO_COUNT>
0

> <PUBCHEM_ATOM_UDEF_STEREO_COUNT>
0

> <PUBCHEM_BOND_DEF_STEREO_COUNT>
0

> <PUBCHEM_BOND_UDEF_STEREO_COUNT>
0

> <PUBCHEM_ISOTOPIC_ATOM_COUNT>
0

> <PUBCHEM_COMPONENT_COUNT>
1

> <PUBCHEM_CACTVS_TAUTO_COUNT>
-1

> <PUBCHEM_COORDINATE_TYPE>
1
5
255

> <PUBCHEM_BONDANNOTATIONS>
10  14  8
10  18  8
13  15  8
13  27  8
14  16  8
14  28  8
15  29  8
16  30  8
27  34  8
28  35  8
29  36  8
30  37  8
34  36  8
35  37  8
5  15  8
5  17  8
6  16  8
6  18  8
9  13  8
9  17  8

$$$$
