44352842
  -OEChem-03202506202D

 76 84  0     1  0  0  0  0  0999 V2000
    7.5253    2.3172    0.0000 O   0  0  0  0  0  0  0  0  0  0  0  0
    9.3271   -1.4246    0.0000 O   0  0  0  0  0  0  0  0  0  0  0  0
    2.2501    0.6180    0.0000 O   0  0  0  0  0  0  0  0  0  0  0  0
   11.4661    1.6176    0.0000 O   0  0  0  0  0  0  0  0  0  0  0  0
   16.2958    0.3235    0.0000 O   0  0  0  0  0  0  0  0  0  0  0  0
   15.8475   -1.3496    0.0000 O   0  0  0  0  0  0  0  0  0  0  0  0
    6.9273   -0.6474    0.0000 N   0  0  0  0  0  0  0  0  0  0  0  0
    6.2433    1.2320    0.0000 N   0  0  0  0  0  0  0  0  0  0  0  0
   11.0179   -0.0555    0.0000 N   0  0  0  0  0  0  0  0  0  0  0  0
    2.5826   -1.1645    0.0000 N   0  0  0  0  0  0  0  0  0  0  0  0
    8.0031    0.3687    0.0000 C   0  0  1  0  0  0  0  0  0  0  0  0
    9.2748   -0.4260    0.0000 C   0  0  2  0  0  0  0  0  0  0  0  0
    8.2619    1.3346    0.0000 C   0  0  2  0  0  0  0  0  0  0  0  0
   10.0519    0.2034    0.0000 C   0  0  2  0  0  0  0  0  0  0  0  0
    9.6936    1.1369    0.0000 C   0  0  0  0  0  0  0  0  0  0  0  0
    5.9425   -0.4737    0.0000 C   0  0  0  0  0  0  0  0  0  0  0  0
    5.6005    0.4660    0.0000 C   0  0  0  0  0  0  0  0  0  0  0  0
    5.2853   -1.2819    0.0000 C   0  0  0  0  0  0  0  0  0  0  0  0
    4.5776    0.6626    0.0000 C   0  0  0  0  0  0  0  0  0  0  0  0
    6.9003   -1.6408    0.0000 C   0  0  0  0  0  0  0  0  0  0  0  0
    7.7443   -0.5972    0.0000 C   0  0  0  0  0  0  0  0  0  0  0  0
    5.5840    1.9757    0.0000 C   0  0  0  0  0  0  0  0  0  0  0  0
    5.9733   -1.9990    0.0000 C   0  0  0  0  0  0  0  0  0  0  0  0
    4.2582   -1.1089    0.0000 C   0  0  0  0  0  0  0  0  0  0  0  0
    3.9019   -0.1301    0.0000 C   0  0  0  0  0  0  0  0  0  0  0  0
    4.6436    1.6543    0.0000 C   0  0  0  0  0  0  0  0  0  0  0  0
    3.4406   -1.7443    0.0000 C   0  0  0  0  0  0  0  0  0  0  0  0
    7.7162   -2.2780    0.0000 C   0  0  0  0  0  0  0  0  0  0  0  0
    2.8672   -0.1689    0.0000 C   0  0  0  0  0  0  0  0  0  0  0  0
    5.7995    2.9882    0.0000 C   0  0  0  0  0  0  0  0  0  0  0  0
    5.7979   -3.0193    0.0000 C   0  0  0  0  0  0  0  0  0  0  0  0
   11.2767   -1.0214    0.0000 C   0  0  0  0  0  0  0  0  0  0  0  0
    3.8535    2.3231    0.0000 C   0  0  0  0  0  0  0  0  0  0  0  0
   11.7250    0.6516    0.0000 C   0  0  0  0  0  0  0  0  0  0  0  0
   10.2181   -1.8786    0.0000 C   0  0  0  0  0  0  0  0  0  0  0  0
    7.5644   -3.3020    0.0000 C   0  0  0  0  0  0  0  0  0  0  0  0
    6.5988   -3.6751    0.0000 C   0  0  0  0  0  0  0  0  0  0  0  0
    5.0250    3.6751    0.0000 C   0  0  0  0  0  0  0  0  0  0  0  0
    4.0454    3.3403    0.0000 C   0  0  0  0  0  0  0  0  0  0  0  0
   12.6909    0.3928    0.0000 C   0  0  0  0  0  0  0  0  0  0  0  0
   12.9497   -0.5731    0.0000 C   0  0  0  0  0  0  0  0  0  0  0  0
   13.3980    1.0999    0.0000 C   0  0  0  0  0  0  0  0  0  0  0  0
   13.9156   -0.8319    0.0000 C   0  0  0  0  0  0  0  0  0  0  0  0
   14.3639    0.8411    0.0000 C   0  0  0  0  0  0  0  0  0  0  0  0
   14.6227   -0.1248    0.0000 C   0  0  0  0  0  0  0  0  0  0  0  0
   15.5887   -0.3836    0.0000 C   0  0  0  0  0  0  0  0  0  0  0  0
    9.8412   -0.6781    0.0000 H   0  0  0  0  0  0  0  0  0  0  0  0
    8.4819    2.1556    0.0000 H   0  0  0  0  0  0  0  0  0  0  0  0
   10.4668    0.6641    0.0000 H   0  0  0  0  0  0  0  0  0  0  0  0
   10.3014    1.2593    0.0000 H   0  0  0  0  0  0  0  0  0  0  0  0
    9.6745    1.7566    0.0000 H   0  0  0  0  0  0  0  0  0  0  0  0
    7.1454   -0.4368    0.0000 H   0  0  0  0  0  0  0  0  0  0  0  0
    7.5838   -1.1961    0.0000 H   0  0  0  0  0  0  0  0  0  0  0  0
    8.3432   -0.7577    0.0000 H   0  0  0  0  0  0  0  0  0  0  0  0
    3.0413   -2.2187    0.0000 H   0  0  0  0  0  0  0  0  0  0  0  0
    3.8703   -2.1912    0.0000 H   0  0  0  0  0  0  0  0  0  0  0  0
    8.2919   -2.0478    0.0000 H   0  0  0  0  0  0  0  0  0  0  0  0
    6.3884    3.1820    0.0000 H   0  0  0  0  0  0  0  0  0  0  0  0
    5.2171   -3.2360    0.0000 H   0  0  0  0  0  0  0  0  0  0  0  0
   10.6778   -1.1818    0.0000 H   0  0  0  0  0  0  0  0  0  0  0  0
   11.4371   -1.6203    0.0000 H   0  0  0  0  0  0  0  0  0  0  0  0
   11.8755   -0.8609    0.0000 H   0  0  0  0  0  0  0  0  0  0  0  0
    3.2692    2.1157    0.0000 H   0  0  0  0  0  0  0  0  0  0  0  0
    2.0000   -1.3766    0.0000 H   0  0  0  0  0  0  0  0  0  0  0  0
    9.9366   -2.4310    0.0000 H   0  0  0  0  0  0  0  0  0  0  0  0
   10.7705   -2.1600    0.0000 H   0  0  0  0  0  0  0  0  0  0  0  0
   10.4996   -1.3262    0.0000 H   0  0  0  0  0  0  0  0  0  0  0  0
    8.0486   -3.6892    0.0000 H   0  0  0  0  0  0  0  0  0  0  0  0
    6.5009   -4.2873    0.0000 H   0  0  0  0  0  0  0  0  0  0  0  0
    5.1470    4.2830    0.0000 H   0  0  0  0  0  0  0  0  0  0  0  0
    3.5769    3.7463    0.0000 H   0  0  0  0  0  0  0  0  0  0  0  0
   12.5113   -1.0115    0.0000 H   0  0  0  0  0  0  0  0  0  0  0  0
   13.2375    1.6988    0.0000 H   0  0  0  0  0  0  0  0  0  0  0  0
   14.0761   -1.4308    0.0000 H   0  0  0  0  0  0  0  0  0  0  0  0
   14.8023    1.2795    0.0000 H   0  0  0  0  0  0  0  0  0  0  0  0
   16.8946    0.1630    0.0000 H   0  0  0  0  0  0  0  0  0  0  0  0
  1 11  1  0  0  0  0
  1 13  1  0  0  0  0
 12  2  1  6  0  0  0
  2 35  1  0  0  0  0
  3 29  2  0  0  0  0
  4 34  2  0  0  0  0
  5 46  1  0  0  0  0
  5 76  1  0  0  0  0
  6 46  2  0  0  0  0
  7 11  1  0  0  0  0
  7 16  1  0  0  0  0
  7 20  1  0  0  0  0
  8 13  1  0  0  0  0
  8 17  1  0  0  0  0
  8 22  1  0  0  0  0
 14  9  1  6  0  0  0
  9 32  1  0  0  0  0
  9 34  1  0  0  0  0
 10 27  1  0  0  0  0
 10 29  1  0  0  0  0
 10 64  1  0  0  0  0
 11 12  1  0  0  0  0
 11 21  1  1  0  0  0
 12 14  1  0  0  0  0
 12 47  1  0  0  0  0
 13 15  1  0  0  0  0
 13 48  1  6  0  0  0
 14 15  1  0  0  0  0
 14 49  1  0  0  0  0
 15 50  1  0  0  0  0
 15 51  1  0  0  0  0
 16 17  2  0  0  0  0
 16 18  1  0  0  0  0
 17 19  1  0  0  0  0
 18 23  1  0  0  0  0
 18 24  2  0  0  0  0
 19 25  2  0  0  0  0
 19 26  1  0  0  0  0
 20 23  1  0  0  0  0
 20 28  2  0  0  0  0
 21 52  1  0  0  0  0
 21 53  1  0  0  0  0
 21 54  1  0  0  0  0
 22 26  1  0  0  0  0
 22 30  2  0  0  0  0
 23 31  2  0  0  0  0
 24 25  1  0  0  0  0
 24 27  1  0  0  0  0
 25 29  1  0  0  0  0
 26 33  2  0  0  0  0
 27 55  1  0  0  0  0
 27 56  1  0  0  0  0
 28 36  1  0  0  0  0
 28 57  1  0  0  0  0
 30 38  1  0  0  0  0
 30 58  1  0  0  0  0
 31 37  1  0  0  0  0
 31 59  1  0  0  0  0
 32 60  1  0  0  0  0
 32 61  1  0  0  0  0
 32 62  1  0  0  0  0
 33 39  1  0  0  0  0
 33 63  1  0  0  0  0
 34 40  1  0  0  0  0
 35 65  1  0  0  0  0
 35 66  1  0  0  0  0
 35 67  1  0  0  0  0
 36 37  2  0  0  0  0
 36 68  1  0  0  0  0
 37 69  1  0  0  0  0
 38 39  2  0  0  0  0
 38 70  1  0  0  0  0
 39 71  1  0  0  0  0
 40 41  2  0  0  0  0
 40 42  1  0  0  0  0
 41 43  1  0  0  0  0
 41 72  1  0  0  0  0
 42 44  2  0  0  0  0
 42 73  1  0  0  0  0
 43 45  2  0  0  0  0
 43 74  1  0  0  0  0
 44 45  1  0  0  0  0
 44 75  1  0  0  0  0
 45 46  1  0  0  0  0
M  END
> <PUBCHEM_COMPOUND_CID>
44352842

> <PUBCHEM_COMPOUND_CANONICALIZED>
1

> <PUBCHEM_CACTVS_COMPLEXITY>
1270

> <PUBCHEM_CACTVS_HBOND_ACCEPTOR>
6

> <PUBCHEM_CACTVS_HBOND_DONOR>
2

> <PUBCHEM_CACTVS_ROTATABLE_BOND>
4

> <PUBCHEM_CACTVS_SUBSKEYS>
AAADceB/uAAAAAAAAAAAAAAAAAAAAWLFgAA0YMGCBYAAAFix/gAAHgAQCAAADDzhngYyyPPMFgCoAyXyXACCgCQlEiAI2KE4fNgLZvLA1ZGfcQhmxgHa2Yf82fOeyAACQAASACCQAASAACQAQAAAAAAAAA==

> <PUBCHEM_IUPAC_OPENEYE_NAME>
4-[[(2R,3S,4S,6S)-3-methoxy-2-methyl-16-oxo-29-oxa-1,7,17-triazaoctacyclo[12.12.2.12,6.07,28.08,13.015,19.020,27.021,26]nonacosa-8,10,12,14,19,21,23,25,27-nonaen-4-yl]-methyl-carbamoyl]benzoic acid

> <PUBCHEM_IUPAC_CAS_NAME>
4-[[[(2R,3S,4S,6S)-3-methoxy-2-methyl-16-oxo-29-oxa-1,7,17-triazaoctacyclo[12.12.2.12,6.07,28.08,13.015,19.020,27.021,26]nonacosa-8,10,12,14,19,21,23,25,27-nonaen-4-yl]-methylamino]-oxomethyl]benzoic acid

> <PUBCHEM_IUPAC_NAME_MARKUP>
4-[[(2<I>R</I>,3<I>S</I>,4<I>S</I>,6<I>S</I>)-3-methoxy-2-methyl-16-oxo-29-oxa-1,7,17-triazaoctacyclo[12.12.2.1<SUP>2,6</SUP>.0<SUP>7,28</SUP>.0<SUP>8,13</SUP>.0<SUP>15,19</SUP>.0<SUP>20,27</SUP>.0<SUP>21,26</SUP>]nonacosa-8,10,12,14,19,21,23,25,27-nonaen-4-yl]-methylcarbamoyl]benzoic acid

> <PUBCHEM_IUPAC_NAME>
4-[[(2R,3S,4S,6S)-3-methoxy-2-methyl-16-oxo-29-oxa-1,7,17-triazaoctacyclo[12.12.2.12,6.07,28.08,13.015,19.020,27.021,26]nonacosa-8,10,12,14,19,21,23,25,27-nonaen-4-yl]-methylcarbamoyl]benzoic acid

> <PUBCHEM_IUPAC_SYSTEMATIC_NAME>
4-[[(2R,3S,4S,6S)-3-methoxy-2-methyl-16-oxidanylidene-29-oxa-1,7,17-triazaoctacyclo[12.12.2.12,6.07,28.08,13.015,19.020,27.021,26]nonacosa-8,10,12,14,19,21,23,25,27-nonaen-4-yl]-methyl-carbamoyl]benzoic acid

> <PUBCHEM_IUPAC_TRADITIONAL_NAME>
4-[[(2R,3S,4S,6S)-16-keto-3-methoxy-2-methyl-29-oxa-1,7,17-triazaoctacyclo[12.12.2.12,6.07,28.08,13.015,19.020,27.021,26]nonacosa-8,10,12,14,19,21,23,25,27-nonaen-4-yl]-methyl-carbamoyl]benzoic acid

> <PUBCHEM_IUPAC_INCHI>
InChI=1S/C36H30N4O6/c1-36-32(45-3)25(38(2)34(42)18-12-14-19(15-13-18)35(43)44)16-26(46-36)39-23-10-6-4-8-20(23)28-29-22(17-37-33(29)41)27-21-9-5-7-11-24(21)40(36)31(27)30(28)39/h4-15,25-26,32H,16-17H2,1-3H3,(H,37,41)(H,43,44)/t25-,26-,32-,36+/m0/s1

> <PUBCHEM_IUPAC_INCHIKEY>
XXIWRTOLXWAEJC-YLDZAAMXSA-N

> <PUBCHEM_XLOGP3_AA>
4.3

> <PUBCHEM_EXACT_MASS>
614.21653469

> <PUBCHEM_MOLECULAR_FORMULA>
C36H30N4O6

> <PUBCHEM_MOLECULAR_WEIGHT>
614.6

> <PUBCHEM_SMILES>
C[C@]12[C@H]([C@H](C[C@H](O1)N3C4=CC=CC=C4C5=C6C(=C7C8=CC=CC=C8N2C7=C53)CNC6=O)N(C)C(=O)C9=CC=C(C=C9)C(=O)O)OC

> <PUBCHEM_OPENEYE_CAN_SMILES>
CC12C(C(CC(O1)N3C4=CC=CC=C4C5=C6C(=C7C8=CC=CC=C8N2C7=C53)CNC6=O)N(C)C(=O)C9=CC=C(C=C9)C(=O)O)OC

> <PUBCHEM_OPENEYE_ISO_SMILES>
C[C@]12[C@H]([C@H](C[C@H](O1)N3C4=CC=CC=C4C5=C6C(=C7C8=CC=CC=C8N2C7=C53)CNC6=O)N(C)C(=O)C9=CC=C(C=C9)C(=O)O)OC

> <PUBCHEM_CACTVS_TPSA>
115

> <PUBCHEM_MONOISOTOPIC_WEIGHT>
614.21653469

> <PUBCHEM_TOTAL_CHARGE>
0

> <PUBCHEM_HEAVY_ATOM_COUNT>
46

> <PUBCHEM_ATOM_DEF_STEREO_COUNT>
4

> <PUBCHEM_ATOM_UDEF_STEREO_COUNT>
0

> <PUBCHEM_BOND_DEF_STEREO_COUNT>
0

> <PUBCHEM_BOND_UDEF_STEREO_COUNT>
0

> <PUBCHEM_ISOTOPIC_ATOM_COUNT>
0

> <PUBCHEM_COMPONENT_COUNT>
1

> <PUBCHEM_CACTVS_TAUTO_COUNT>
-1

> <PUBCHEM_COORDINATE_TYPE>
1
5
255

> <PUBCHEM_BONDANNOTATIONS>
11  21  5
13  48  6
16  17  8
16  18  8
17  19  8
18  23  8
18  24  8
19  25  8
19  26  8
12  2  6
20  23  8
20  28  8
22  26  8
22  30  8
23  31  8
24  25  8
26  33  8
28  36  8
30  38  8
31  37  8
33  39  8
36  37  8
38  39  8
40  41  8
40  42  8
41  43  8
42  44  8
43  45  8
44  45  8
7  16  8
7  20  8
8  17  8
8  22  8
14  9  6

$$$$
