49830443
  -OEChem-03202503472D

 49 53  0     0  0  0  0  0  0999 V2000
    5.1646    0.6253    0.0000 N   0  0  0  0  0  0  0  0  0  0  0  0
    6.6428    1.2834    0.0000 N   0  0  0  0  0  0  0  0  0  0  0  0
    5.6646    1.4913    0.0000 N   0  0  0  0  0  0  0  0  0  0  0  0
   10.2916   -1.5159    0.0000 N   0  0  0  0  0  0  0  0  0  0  0  0
   10.8752   -0.7111    0.0000 N   0  0  0  0  0  0  0  0  0  0  0  0
   10.6022    1.0441    0.0000 N   0  0  0  0  0  0  0  0  0  0  0  0
    5.8338   -0.1179    0.0000 C   0  0  0  0  0  0  0  0  0  0  0  0
    6.7473    0.2889    0.0000 C   0  0  0  0  0  0  0  0  0  0  0  0
    5.6258   -1.0960    0.0000 C   0  0  0  0  0  0  0  0  0  0  0  0
    7.6133   -0.2111    0.0000 C   0  0  0  0  0  0  0  0  0  0  0  0
    4.1701    0.5207    0.0000 C   0  0  0  0  0  0  0  0  0  0  0  0
    9.3454   -0.2111    0.0000 C   0  0  0  0  0  0  0  0  0  0  0  0
    8.4793    0.2889    0.0000 C   0  0  0  0  0  0  0  0  0  0  0  0
    4.6748   -1.4050    0.0000 C   0  0  0  0  0  0  0  0  0  0  0  0
    9.3454   -1.2111    0.0000 C   0  0  0  0  0  0  0  0  0  0  0  0
    7.6133   -1.2111    0.0000 C   0  0  0  0  0  0  0  0  0  0  0  0
    3.5823    1.3298    0.0000 C   0  0  0  0  0  0  0  0  0  0  0  0
    6.3690   -1.7652    0.0000 C   0  0  0  0  0  0  0  0  0  0  0  0
    8.4793   -1.7111    0.0000 C   0  0  0  0  0  0  0  0  0  0  0  0
   10.2916    0.0936    0.0000 C   0  0  0  0  0  0  0  0  0  0  0  0
    4.4669   -2.3832    0.0000 C   0  0  0  0  0  0  0  0  0  0  0  0
    3.9316   -0.7359    0.0000 C   0  0  0  0  0  0  0  0  0  0  0  0
    6.1611   -2.7433    0.0000 C   0  0  0  0  0  0  0  0  0  0  0  0
    2.5878    1.2252    0.0000 C   0  0  0  0  0  0  0  0  0  0  0  0
    3.9890    2.2433    0.0000 C   0  0  0  0  0  0  0  0  0  0  0  0
    5.2100   -3.0523    0.0000 C   0  0  0  0  0  0  0  0  0  0  0  0
    2.0000    2.0342    0.0000 C   0  0  0  0  0  0  0  0  0  0  0  0
    3.4013    3.0523    0.0000 C   0  0  0  0  0  0  0  0  0  0  0  0
    2.4067    2.9478    0.0000 C   0  0  0  0  0  0  0  0  0  0  0  0
    3.6128    0.2490    0.0000 H   0  0  0  0  0  0  0  0  0  0  0  0
    4.3410   -0.0752    0.0000 H   0  0  0  0  0  0  0  0  0  0  0  0
    8.4793    0.9089    0.0000 H   0  0  0  0  0  0  0  0  0  0  0  0
    7.0764   -1.5211    0.0000 H   0  0  0  0  0  0  0  0  0  0  0  0
    6.9586   -1.5736    0.0000 H   0  0  0  0  0  0  0  0  0  0  0  0
    8.4793   -2.3311    0.0000 H   0  0  0  0  0  0  0  0  0  0  0  0
    3.8772   -2.5748    0.0000 H   0  0  0  0  0  0  0  0  0  0  0  0
   10.4842   -2.1052    0.0000 H   0  0  0  0  0  0  0  0  0  0  0  0
    4.3465   -0.2752    0.0000 H   0  0  0  0  0  0  0  0  0  0  0  0
    3.4709   -0.3210    0.0000 H   0  0  0  0  0  0  0  0  0  0  0  0
    3.5168   -1.1967    0.0000 H   0  0  0  0  0  0  0  0  0  0  0  0
    6.6218   -3.1582    0.0000 H   0  0  0  0  0  0  0  0  0  0  0  0
    2.3356    0.6588    0.0000 H   0  0  0  0  0  0  0  0  0  0  0  0
    4.6056    2.3081    0.0000 H   0  0  0  0  0  0  0  0  0  0  0  0
    5.0811   -3.6588    0.0000 H   0  0  0  0  0  0  0  0  0  0  0  0
    1.3834    1.9694    0.0000 H   0  0  0  0  0  0  0  0  0  0  0  0
    3.6534    3.6187    0.0000 H   0  0  0  0  0  0  0  0  0  0  0  0
   11.2089    1.1720    0.0000 H   0  0  0  0  0  0  0  0  0  0  0  0
   10.1882    1.5056    0.0000 H   0  0  0  0  0  0  0  0  0  0  0  0
    2.0423    3.4494    0.0000 H   0  0  0  0  0  0  0  0  0  0  0  0
  1  3  1  0  0  0  0
  1  7  1  0  0  0  0
  1 11  1  0  0  0  0
  2  3  2  0  0  0  0
  2  8  1  0  0  0  0
  4  5  1  0  0  0  0
  4 15  1  0  0  0  0
  4 37  1  0  0  0  0
  5 20  2  0  0  0  0
  6 20  1  0  0  0  0
  6 47  1  0  0  0  0
  6 48  1  0  0  0  0
  7  8  2  0  0  0  0
  7  9  1  0  0  0  0
  8 10  1  0  0  0  0
  9 14  1  0  0  0  0
  9 18  2  0  0  0  0
 10 13  2  0  0  0  0
 10 16  1  0  0  0  0
 11 17  1  0  0  0  0
 11 30  1  0  0  0  0
 11 31  1  0  0  0  0
 12 13  1  0  0  0  0
 12 15  2  0  0  0  0
 12 20  1  0  0  0  0
 13 32  1  0  0  0  0
 14 21  2  0  0  0  0
 14 22  1  0  0  0  0
 15 19  1  0  0  0  0
 16 19  2  0  0  0  0
 16 33  1  0  0  0  0
 17 24  2  0  0  0  0
 17 25  1  0  0  0  0
 18 23  1  0  0  0  0
 18 34  1  0  0  0  0
 19 35  1  0  0  0  0
 21 26  1  0  0  0  0
 21 36  1  0  0  0  0
 22 38  1  0  0  0  0
 22 39  1  0  0  0  0
 22 40  1  0  0  0  0
 23 26  2  0  0  0  0
 23 41  1  0  0  0  0
 24 27  1  0  0  0  0
 24 42  1  0  0  0  0
 25 28  2  0  0  0  0
 25 43  1  0  0  0  0
 26 44  1  0  0  0  0
 27 29  2  0  0  0  0
 27 45  1  0  0  0  0
 28 29  1  0  0  0  0
 28 46  1  0  0  0  0
 29 49  1  0  0  0  0
M  END
> <PUBCHEM_COMPOUND_CID>
49830443

> <PUBCHEM_COMPOUND_CANONICALIZED>
1

> <PUBCHEM_CACTVS_COMPLEXITY>
537

> <PUBCHEM_CACTVS_HBOND_ACCEPTOR>
4

> <PUBCHEM_CACTVS_HBOND_DONOR>
2

> <PUBCHEM_CACTVS_ROTATABLE_BOND>
4

> <PUBCHEM_CACTVS_SUBSKEYS>
AAADceB7gAAAAAAAAAAAAAAAAAAAAWLAAAAwYMAAAAAAAFgB/AAAHAAYAAAADAjBHgQz8PJrAACiAyZiZACSBAYhkgAc+SA4dJgIYKLA0dGUpAhwmADIyAcQgMAOiAACAAASAAAQAAQAACQAAAAAAAAAAA==

> <PUBCHEM_IUPAC_OPENEYE_NAME>
5-[1-benzyl-5-(o-tolyl)triazol-4-yl]-1H-indazol-3-amine

> <PUBCHEM_IUPAC_CAS_NAME>
5-[5-(2-methylphenyl)-1-(phenylmethyl)-4-triazolyl]-1H-indazol-3-amine

> <PUBCHEM_IUPAC_NAME_MARKUP>
5-[1-benzyl-5-(2-methylphenyl)triazol-4-yl]-1<I>H</I>-indazol-3-amine

> <PUBCHEM_IUPAC_NAME>
5-[1-benzyl-5-(2-methylphenyl)triazol-4-yl]-1H-indazol-3-amine

> <PUBCHEM_IUPAC_SYSTEMATIC_NAME>
5-[5-(2-methylphenyl)-1-(phenylmethyl)-1,2,3-triazol-4-yl]-1H-indazol-3-amine

> <PUBCHEM_IUPAC_TRADITIONAL_NAME>
[5-[1-benzyl-5-(o-tolyl)triazol-4-yl]-1H-indazol-3-yl]amine

> <PUBCHEM_IUPAC_INCHI>
InChI=1S/C23H20N6/c1-15-7-5-6-10-18(15)22-21(17-11-12-20-19(13-17)23(24)27-25-20)26-28-29(22)14-16-8-3-2-4-9-16/h2-13H,14H2,1H3,(H3,24,25,27)

> <PUBCHEM_IUPAC_INCHIKEY>
GJOXRIYWDHESDF-UHFFFAOYSA-N

> <PUBCHEM_XLOGP3_AA>
4.3

> <PUBCHEM_EXACT_MASS>
380.17494466

> <PUBCHEM_MOLECULAR_FORMULA>
C23H20N6

> <PUBCHEM_MOLECULAR_WEIGHT>
380.4

> <PUBCHEM_SMILES>
CC1=CC=CC=C1C2=C(N=NN2CC3=CC=CC=C3)C4=CC5=C(C=C4)NN=C5N

> <PUBCHEM_OPENEYE_CAN_SMILES>
CC1=CC=CC=C1C2=C(N=NN2CC3=CC=CC=C3)C4=CC5=C(C=C4)NN=C5N

> <PUBCHEM_OPENEYE_ISO_SMILES>
CC1=CC=CC=C1C2=C(N=NN2CC3=CC=CC=C3)C4=CC5=C(C=C4)NN=C5N

> <PUBCHEM_CACTVS_TPSA>
85.4

> <PUBCHEM_MONOISOTOPIC_WEIGHT>
380.17494466

> <PUBCHEM_TOTAL_CHARGE>
0

> <PUBCHEM_HEAVY_ATOM_COUNT>
29

> <PUBCHEM_ATOM_DEF_STEREO_COUNT>
0

> <PUBCHEM_ATOM_UDEF_STEREO_COUNT>
0

> <PUBCHEM_BOND_DEF_STEREO_COUNT>
0

> <PUBCHEM_BOND_UDEF_STEREO_COUNT>
0

> <PUBCHEM_ISOTOPIC_ATOM_COUNT>
0

> <PUBCHEM_COMPONENT_COUNT>
1

> <PUBCHEM_CACTVS_TAUTO_COUNT>
-1

> <PUBCHEM_COORDINATE_TYPE>
1
5
255

> <PUBCHEM_BONDANNOTATIONS>
1  3  8
1  7  8
10  13  8
10  16  8
12  13  8
12  15  8
12  20  8
14  21  8
15  19  8
16  19  8
17  24  8
17  25  8
18  23  8
2  3  8
2  8  8
21  26  8
23  26  8
24  27  8
25  28  8
27  29  8
28  29  8
4  15  8
4  5  8
5  20  8
7  8  8
9  14  8
9  18  8

$$$$
