53341082
  -OEChem-03202504332D

 54 57  0     0  0  0  0  0  0999 V2000
    4.5981   -0.8965    0.0000 Cl  0  0  0  0  0  0  0  0  0  0  0  0
    8.9852    0.6913    0.0000 O   0  0  0  0  0  0  0  0  0  0  0  0
    4.5981   -2.8965    0.0000 O   0  0  0  0  0  0  0  0  0  0  0  0
   12.0576    4.0694    0.0000 O   0  0  0  0  0  0  0  0  0  0  0  0
    8.0622   -0.8965    0.0000 N   0  0  0  0  0  0  0  0  0  0  0  0
   10.6032    0.6913    0.0000 N   0  0  0  0  0  0  0  0  0  0  0  0
    8.9282   -2.3965    0.0000 N   0  0  0  0  0  0  0  0  0  0  0  0
   10.4753    3.3649    0.0000 N   0  0  0  0  0  0  0  0  0  0  0  0
   10.6603   -2.3965    0.0000 N   0  0  0  0  0  0  0  0  0  0  0  0
   11.5263   -0.8965    0.0000 N   0  0  0  0  0  0  0  0  0  0  0  0
    3.7320   -5.3965    0.0000 N   0  0  0  0  0  0  0  0  0  0  0  0
    9.7942   -0.8965    0.0000 C   0  0  0  0  0  0  0  0  0  0  0  0
    8.9282   -1.3965    0.0000 C   0  0  0  0  0  0  0  0  0  0  0  0
    7.1962   -1.3965    0.0000 C   0  0  0  0  0  0  0  0  0  0  0  0
    9.7942    0.1035    0.0000 C   0  0  0  0  0  0  0  0  0  0  0  0
   10.2942    1.6424    0.0000 C   0  0  0  0  0  0  0  0  0  0  0  0
   10.6603   -1.3965    0.0000 C   0  0  0  0  0  0  0  0  0  0  0  0
   10.8820    2.4514    0.0000 C   0  0  0  0  0  0  0  0  0  0  0  0
    6.3301   -0.8965    0.0000 C   0  0  0  0  0  0  0  0  0  0  0  0
    7.1962   -2.3965    0.0000 C   0  0  0  0  0  0  0  0  0  0  0  0
    5.4641   -2.3965    0.0000 C   0  0  0  0  0  0  0  0  0  0  0  0
    5.4641   -1.3965    0.0000 C   0  0  0  0  0  0  0  0  0  0  0  0
    6.3301   -2.8965    0.0000 C   0  0  0  0  0  0  0  0  0  0  0  0
    9.2942    1.6424    0.0000 C   0  0  0  0  0  0  0  0  0  0  0  0
    4.5981   -3.8965    0.0000 C   0  0  0  0  0  0  0  0  0  0  0  0
    9.7942   -2.8965    0.0000 C   0  0  0  0  0  0  0  0  0  0  0  0
    3.7320   -4.3965    0.0000 C   0  0  0  0  0  0  0  0  0  0  0  0
    2.8660   -3.8965    0.0000 C   0  0  0  0  0  0  0  0  0  0  0  0
   11.0631    4.1739    0.0000 C   0  0  0  0  0  0  0  0  0  0  0  0
    2.0000   -4.3965    0.0000 C   0  0  0  0  0  0  0  0  0  0  0  0
    2.8660   -5.8965    0.0000 C   0  0  0  0  0  0  0  0  0  0  0  0
    2.0000   -5.3965    0.0000 C   0  0  0  0  0  0  0  0  0  0  0  0
   10.6563    5.0875    0.0000 C   0  0  0  0  0  0  0  0  0  0  0  0
   11.2441    5.8965    0.0000 C   0  0  0  0  0  0  0  0  0  0  0  0
    8.0622   -0.2765    0.0000 H   0  0  0  0  0  0  0  0  0  0  0  0
   11.3127    2.0054    0.0000 H   0  0  0  0  0  0  0  0  0  0  0  0
   11.3960    2.7981    0.0000 H   0  0  0  0  0  0  0  0  0  0  0  0
    6.3301   -0.2765    0.0000 H   0  0  0  0  0  0  0  0  0  0  0  0
    7.7331   -2.7065    0.0000 H   0  0  0  0  0  0  0  0  0  0  0  0
    6.3301   -3.5165    0.0000 H   0  0  0  0  0  0  0  0  0  0  0  0
    8.9298    2.1439    0.0000 H   0  0  0  0  0  0  0  0  0  0  0  0
    4.8101   -4.4791    0.0000 H   0  0  0  0  0  0  0  0  0  0  0  0
    5.2087   -3.7888    0.0000 H   0  0  0  0  0  0  0  0  0  0  0  0
    9.8587    3.4297    0.0000 H   0  0  0  0  0  0  0  0  0  0  0  0
    9.7942   -3.5165    0.0000 H   0  0  0  0  0  0  0  0  0  0  0  0
   12.0632   -1.2065    0.0000 H   0  0  0  0  0  0  0  0  0  0  0  0
   11.5263   -0.2765    0.0000 H   0  0  0  0  0  0  0  0  0  0  0  0
    2.8660   -3.2765    0.0000 H   0  0  0  0  0  0  0  0  0  0  0  0
    1.4631   -4.0865    0.0000 H   0  0  0  0  0  0  0  0  0  0  0  0
    2.8660   -6.5165    0.0000 H   0  0  0  0  0  0  0  0  0  0  0  0
    1.4631   -5.7065    0.0000 H   0  0  0  0  0  0  0  0  0  0  0  0
   10.0397    5.1523    0.0000 H   0  0  0  0  0  0  0  0  0  0  0  0
   11.8607    5.8317    0.0000 H   0  0  0  0  0  0  0  0  0  0  0  0
   10.9919    6.4629    0.0000 H   0  0  0  0  0  0  0  0  0  0  0  0
  1 22  1  0  0  0  0
  2 15  1  0  0  0  0
  2 24  1  0  0  0  0
  3 21  1  0  0  0  0
  3 25  1  0  0  0  0
  4 29  2  0  0  0  0
  5 13  1  0  0  0  0
  5 14  1  0  0  0  0
  5 35  1  0  0  0  0
  6 15  2  0  0  0  0
  6 16  1  0  0  0  0
  7 13  2  0  0  0  0
  7 26  1  0  0  0  0
  8 18  1  0  0  0  0
  8 29  1  0  0  0  0
  8 44  1  0  0  0  0
  9 17  1  0  0  0  0
  9 26  2  0  0  0  0
 10 17  1  0  0  0  0
 10 46  1  0  0  0  0
 10 47  1  0  0  0  0
 11 27  1  0  0  0  0
 11 31  2  0  0  0  0
 12 13  1  0  0  0  0
 12 15  1  0  0  0  0
 12 17  2  0  0  0  0
 14 19  2  0  0  0  0
 14 20  1  0  0  0  0
 16 18  1  0  0  0  0
 16 24  2  0  0  0  0
 18 36  1  0  0  0  0
 18 37  1  0  0  0  0
 19 22  1  0  0  0  0
 19 38  1  0  0  0  0
 20 23  2  0  0  0  0
 20 39  1  0  0  0  0
 21 22  2  0  0  0  0
 21 23  1  0  0  0  0
 23 40  1  0  0  0  0
 24 41  1  0  0  0  0
 25 27  1  0  0  0  0
 25 42  1  0  0  0  0
 25 43  1  0  0  0  0
 26 45  1  0  0  0  0
 27 28  2  0  0  0  0
 28 30  1  0  0  0  0
 28 48  1  0  0  0  0
 29 33  1  0  0  0  0
 30 32  2  0  0  0  0
 30 49  1  0  0  0  0
 31 32  1  0  0  0  0
 31 50  1  0  0  0  0
 32 51  1  0  0  0  0
 33 34  2  0  0  0  0
 33 52  1  0  0  0  0
 34 53  1  0  0  0  0
 34 54  1  0  0  0  0
M  END
> <PUBCHEM_COMPOUND_CID>
53341082

> <PUBCHEM_COMPOUND_CANONICALIZED>
1

> <PUBCHEM_CACTVS_COMPLEXITY>
674

> <PUBCHEM_CACTVS_HBOND_ACCEPTOR>
9

> <PUBCHEM_CACTVS_HBOND_DONOR>
3

> <PUBCHEM_CACTVS_ROTATABLE_BOND>
9

> <PUBCHEM_CACTVS_SUBSKEYS>
AAADceB7sAAEAAAAAAAAAAAAAAAAAWAAAAA8WIAAAAAAAAAB/AAAHgIQAAAADA7hniY99pbIFECoAz939ASCiCk/Z+AJ2KG/b9iObuvF+/ufPKju1hPY6OewQAAAAEAAAAIACAAAgAAABAAQAAAAAAAAAA==

> <PUBCHEM_IUPAC_OPENEYE_NAME>
N-[[2-[4-amino-6-[3-chloro-4-(2-pyridylmethoxy)anilino]pyrimidin-5-yl]oxazol-4-yl]methyl]prop-2-enamide

> <PUBCHEM_IUPAC_CAS_NAME>
N-[[2-[4-amino-6-[3-chloro-4-(2-pyridinylmethoxy)anilino]-5-pyrimidinyl]-4-oxazolyl]methyl]-2-propenamide

> <PUBCHEM_IUPAC_NAME_MARKUP>
<I>N</I>-[[2-[4-amino-6-[3-chloro-4-(pyridin-2-ylmethoxy)anilino]pyrimidin-5-yl]-1,3-oxazol-4-yl]methyl]prop-2-enamide

> <PUBCHEM_IUPAC_NAME>
N-[[2-[4-amino-6-[3-chloro-4-(pyridin-2-ylmethoxy)anilino]pyrimidin-5-yl]-1,3-oxazol-4-yl]methyl]prop-2-enamide

> <PUBCHEM_IUPAC_SYSTEMATIC_NAME>
N-[[2-[4-azanyl-6-[[3-chloranyl-4-(pyridin-2-ylmethoxy)phenyl]amino]pyrimidin-5-yl]-1,3-oxazol-4-yl]methyl]prop-2-enamide

> <PUBCHEM_IUPAC_TRADITIONAL_NAME>
N-[[2-[4-amino-6-[3-chloro-4-(2-pyridylmethoxy)anilino]pyrimidin-5-yl]oxazol-4-yl]methyl]acrylamide

> <PUBCHEM_IUPAC_INCHI>
InChI=1S/C23H20ClN7O3/c1-2-19(32)27-10-16-12-34-23(31-16)20-21(25)28-13-29-22(20)30-14-6-7-18(17(24)9-14)33-11-15-5-3-4-8-26-15/h2-9,12-13H,1,10-11H2,(H,27,32)(H3,25,28,29,30)

> <PUBCHEM_IUPAC_INCHIKEY>
PRTPANUTPYMUDM-UHFFFAOYSA-N

> <PUBCHEM_XLOGP3_AA>
2.6

> <PUBCHEM_EXACT_MASS>
477.1316152

> <PUBCHEM_MOLECULAR_FORMULA>
C23H20ClN7O3

> <PUBCHEM_MOLECULAR_WEIGHT>
477.9

> <PUBCHEM_SMILES>
C=CC(=O)NCC1=COC(=N1)C2=C(N=CN=C2NC3=CC(=C(C=C3)OCC4=CC=CC=N4)Cl)N

> <PUBCHEM_OPENEYE_CAN_SMILES>
C=CC(=O)NCC1=COC(=N1)C2=C(N=CN=C2NC3=CC(=C(C=C3)OCC4=CC=CC=N4)Cl)N

> <PUBCHEM_OPENEYE_ISO_SMILES>
C=CC(=O)NCC1=COC(=N1)C2=C(N=CN=C2NC3=CC(=C(C=C3)OCC4=CC=CC=N4)Cl)N

> <PUBCHEM_CACTVS_TPSA>
141

> <PUBCHEM_MONOISOTOPIC_WEIGHT>
477.1316152

> <PUBCHEM_TOTAL_CHARGE>
0

> <PUBCHEM_HEAVY_ATOM_COUNT>
34

> <PUBCHEM_ATOM_DEF_STEREO_COUNT>
0

> <PUBCHEM_ATOM_UDEF_STEREO_COUNT>
0

> <PUBCHEM_BOND_DEF_STEREO_COUNT>
0

> <PUBCHEM_BOND_UDEF_STEREO_COUNT>
0

> <PUBCHEM_ISOTOPIC_ATOM_COUNT>
0

> <PUBCHEM_COMPONENT_COUNT>
1

> <PUBCHEM_CACTVS_TAUTO_COUNT>
-1

> <PUBCHEM_COORDINATE_TYPE>
1
5
255

> <PUBCHEM_BONDANNOTATIONS>
11  27  8
11  31  8
12  13  8
12  17  8
14  19  8
14  20  8
16  24  8
19  22  8
2  15  8
2  24  8
20  23  8
21  22  8
21  23  8
27  28  8
28  30  8
30  32  8
31  32  8
6  15  8
6  16  8
7  13  8
7  26  8
9  17  8
9  26  8

$$$$
