136027061
  -OEChem-03202503512D

 92 94  0     0  0  0  0  0  0999 V2000
    7.7331   -2.0950    0.0000 O   0  0  0  0  0  0  0  0  0  0  0  0
    9.4651    0.9050    0.0000 O   0  0  0  0  0  0  0  0  0  0  0  0
    6.0010   -2.0950    0.0000 N   0  0  0  0  0  0  0  0  0  0  0  0
    8.5991    2.4050    0.0000 N   0  0  0  0  0  0  0  0  0  0  0  0
    7.7331   -6.0950    0.0000 N   0  0  0  0  0  0  0  0  0  0  0  0
   11.1972    5.9050    0.0000 N   0  0  0  0  0  0  0  0  0  0  0  0
    4.2690   -6.0950    0.0000 N   0  0  0  0  0  0  0  0  0  0  0  0
   12.9292    2.9050    0.0000 N   0  0  0  0  0  0  0  0  0  0  0  0
    8.5991   -6.5950    0.0000 N   0  0  0  0  0  0  0  0  0  0  0  0
   11.1972    6.9050    0.0000 N   0  0  0  0  0  0  0  0  0  0  0  0
    3.4030   -6.5950    0.0000 N   0  0  0  0  0  0  0  0  0  0  0  0
   13.7953    2.4050    0.0000 N   0  0  0  0  0  0  0  0  0  0  0  0
    9.4651   -8.0950    0.0000 N   0  0  0  0  0  0  0  0  0  0  0  0
   12.0632    8.4050    0.0000 N   0  0  0  0  0  0  0  0  0  0  0  0
    2.5369   -8.0950    0.0000 N   0  0  0  0  0  0  0  0  0  0  0  0
   15.5273    2.4050    0.0000 N   0  0  0  0  0  0  0  0  0  0  0  0
    7.7331   -8.0950    0.0000 N   0  0  0  0  0  0  0  0  0  0  0  0
   12.9292    6.9050    0.0000 N   0  0  0  0  0  0  0  0  0  0  0  0
    4.2690   -8.0950    0.0000 N   0  0  0  0  0  0  0  0  0  0  0  0
   14.6613    3.9050    0.0000 N   0  0  0  0  0  0  0  0  0  0  0  0
    6.0010   -3.0950    0.0000 C   0  0  0  0  0  0  0  0  0  0  0  0
    9.4651    2.9050    0.0000 C   0  0  0  0  0  0  0  0  0  0  0  0
    6.8671   -4.5950    0.0000 C   0  0  0  0  0  0  0  0  0  0  0  0
   10.3312    4.4050    0.0000 C   0  0  0  0  0  0  0  0  0  0  0  0
    5.1350   -4.5950    0.0000 C   0  0  0  0  0  0  0  0  0  0  0  0
   11.1972    2.9050    0.0000 C   0  0  0  0  0  0  0  0  0  0  0  0
    5.1350   -3.5950    0.0000 C   0  0  0  0  0  0  0  0  0  0  0  0
    6.8671   -3.5950    0.0000 C   0  0  0  0  0  0  0  0  0  0  0  0
   10.3312    2.4050    0.0000 C   0  0  0  0  0  0  0  0  0  0  0  0
    9.4651    3.9050    0.0000 C   0  0  0  0  0  0  0  0  0  0  0  0
    6.0010   -5.0950    0.0000 C   0  0  0  0  0  0  0  0  0  0  0  0
   11.1972    3.9050    0.0000 C   0  0  0  0  0  0  0  0  0  0  0  0
    6.8671   -0.5950    0.0000 C   0  0  0  0  0  0  0  0  0  0  0  0
    7.7331    0.9050    0.0000 C   0  0  0  0  0  0  0  0  0  0  0  0
    7.7331   -0.0950    0.0000 C   0  0  0  0  0  0  0  0  0  0  0  0
    6.8671   -1.5950    0.0000 C   0  0  0  0  0  0  0  0  0  0  0  0
    8.5991    1.4050    0.0000 C   0  0  0  0  0  0  0  0  0  0  0  0
    7.7331   -5.0950    0.0000 C   0  0  0  0  0  0  0  0  0  0  0  0
   10.3312    5.4050    0.0000 C   0  0  0  0  0  0  0  0  0  0  0  0
    4.2690   -5.0950    0.0000 C   0  0  0  0  0  0  0  0  0  0  0  0
   12.0632    2.4050    0.0000 C   0  0  0  0  0  0  0  0  0  0  0  0
    6.0010   -0.0950    0.0000 C   0  0  0  0  0  0  0  0  0  0  0  0
    6.8671    1.4050    0.0000 C   0  0  0  0  0  0  0  0  0  0  0  0
    6.0010    0.9050    0.0000 C   0  0  0  0  0  0  0  0  0  0  0  0
    8.5991   -4.5950    0.0000 C   0  0  0  0  0  0  0  0  0  0  0  0
    9.4651    5.9050    0.0000 C   0  0  0  0  0  0  0  0  0  0  0  0
    3.4030   -4.5950    0.0000 C   0  0  0  0  0  0  0  0  0  0  0  0
   12.0632    1.4050    0.0000 C   0  0  0  0  0  0  0  0  0  0  0  0
    8.5991   -7.5950    0.0000 C   0  0  0  0  0  0  0  0  0  0  0  0
   12.0632    7.4050    0.0000 C   0  0  0  0  0  0  0  0  0  0  0  0
    3.4030   -7.5950    0.0000 C   0  0  0  0  0  0  0  0  0  0  0  0
   14.6613    2.9050    0.0000 C   0  0  0  0  0  0  0  0  0  0  0  0
    4.5981   -3.2850    0.0000 H   0  0  0  0  0  0  0  0  0  0  0  0
    7.4040   -3.2850    0.0000 H   0  0  0  0  0  0  0  0  0  0  0  0
   10.3312    1.7850    0.0000 H   0  0  0  0  0  0  0  0  0  0  0  0
    8.9282    4.2150    0.0000 H   0  0  0  0  0  0  0  0  0  0  0  0
    6.0010   -5.7150    0.0000 H   0  0  0  0  0  0  0  0  0  0  0  0
   11.7341    4.2150    0.0000 H   0  0  0  0  0  0  0  0  0  0  0  0
    5.4641   -1.7850    0.0000 H   0  0  0  0  0  0  0  0  0  0  0  0
    8.0622    2.7150    0.0000 H   0  0  0  0  0  0  0  0  0  0  0  0
    8.2700   -0.4050    0.0000 H   0  0  0  0  0  0  0  0  0  0  0  0
    5.4641   -0.4050    0.0000 H   0  0  0  0  0  0  0  0  0  0  0  0
    6.8671    2.0250    0.0000 H   0  0  0  0  0  0  0  0  0  0  0  0
    5.4641    1.2150    0.0000 H   0  0  0  0  0  0  0  0  0  0  0  0
    8.9091   -5.1319    0.0000 H   0  0  0  0  0  0  0  0  0  0  0  0
    9.1360   -4.2850    0.0000 H   0  0  0  0  0  0  0  0  0  0  0  0
    8.2891   -4.0581    0.0000 H   0  0  0  0  0  0  0  0  0  0  0  0
    9.7751    6.4419    0.0000 H   0  0  0  0  0  0  0  0  0  0  0  0
    8.9282    6.2150    0.0000 H   0  0  0  0  0  0  0  0  0  0  0  0
    9.1551    5.3681    0.0000 H   0  0  0  0  0  0  0  0  0  0  0  0
    3.7130   -4.0581    0.0000 H   0  0  0  0  0  0  0  0  0  0  0  0
    2.8660   -4.2850    0.0000 H   0  0  0  0  0  0  0  0  0  0  0  0
    3.0930   -5.1319    0.0000 H   0  0  0  0  0  0  0  0  0  0  0  0
   11.4432    1.4050    0.0000 H   0  0  0  0  0  0  0  0  0  0  0  0
   12.0632    0.7850    0.0000 H   0  0  0  0  0  0  0  0  0  0  0  0
   12.6832    1.4050    0.0000 H   0  0  0  0  0  0  0  0  0  0  0  0
    9.1360   -6.2850    0.0000 H   0  0  0  0  0  0  0  0  0  0  0  0
   10.6603    7.2150    0.0000 H   0  0  0  0  0  0  0  0  0  0  0  0
    2.8660   -6.2850    0.0000 H   0  0  0  0  0  0  0  0  0  0  0  0
   13.7953    1.7850    0.0000 H   0  0  0  0  0  0  0  0  0  0  0  0
    9.4651   -8.7150    0.0000 H   0  0  0  0  0  0  0  0  0  0  0  0
   10.0021   -7.7850    0.0000 H   0  0  0  0  0  0  0  0  0  0  0  0
   12.6002    8.7150    0.0000 H   0  0  0  0  0  0  0  0  0  0  0  0
   11.5263    8.7150    0.0000 H   0  0  0  0  0  0  0  0  0  0  0  0
    2.5369   -8.7150    0.0000 H   0  0  0  0  0  0  0  0  0  0  0  0
    2.0000   -7.7850    0.0000 H   0  0  0  0  0  0  0  0  0  0  0  0
   16.0643    2.7150    0.0000 H   0  0  0  0  0  0  0  0  0  0  0  0
   15.5273    1.7850    0.0000 H   0  0  0  0  0  0  0  0  0  0  0  0
    7.7331   -8.7150    0.0000 H   0  0  0  0  0  0  0  0  0  0  0  0
   13.4662    7.2150    0.0000 H   0  0  0  0  0  0  0  0  0  0  0  0
    4.2690   -8.7150    0.0000 H   0  0  0  0  0  0  0  0  0  0  0  0
   15.1982    4.2150    0.0000 H   0  0  0  0  0  0  0  0  0  0  0  0
  1 36  2  0  0  0  0
  2 37  2  0  0  0  0
  3 21  1  0  0  0  0
  3 36  1  0  0  0  0
  3 59  1  0  0  0  0
  4 22  1  0  0  0  0
  4 37  1  0  0  0  0
  4 60  1  0  0  0  0
  5  9  1  0  0  0  0
  5 38  2  3  0  0  0
  6 10  1  0  0  0  0
  6 39  2  3  0  0  0
  7 11  1  0  0  0  0
  7 40  2  3  0  0  0
  8 12  1  0  0  0  0
  8 41  2  3  0  0  0
  9 49  1  0  0  0  0
  9 77  1  0  0  0  0
 10 50  1  0  0  0  0
 10 78  1  0  0  0  0
 11 51  1  0  0  0  0
 11 79  1  0  0  0  0
 12 52  1  0  0  0  0
 12 80  1  0  0  0  0
 13 49  1  0  0  0  0
 13 81  1  0  0  0  0
 13 82  1  0  0  0  0
 14 50  1  0  0  0  0
 14 83  1  0  0  0  0
 14 84  1  0  0  0  0
 15 51  1  0  0  0  0
 15 85  1  0  0  0  0
 15 86  1  0  0  0  0
 16 52  1  0  0  0  0
 16 87  1  0  0  0  0
 16 88  1  0  0  0  0
 17 49  2  0  0  0  0
 17 89  1  0  0  0  0
 18 50  2  0  0  0  0
 18 90  1  0  0  0  0
 19 51  2  0  0  0  0
 19 91  1  0  0  0  0
 20 52  2  0  0  0  0
 20 92  1  0  0  0  0
 21 27  2  0  0  0  0
 21 28  1  0  0  0  0
 22 29  2  0  0  0  0
 22 30  1  0  0  0  0
 23 28  2  0  0  0  0
 23 31  1  0  0  0  0
 23 38  1  0  0  0  0
 24 30  2  0  0  0  0
 24 32  1  0  0  0  0
 24 39  1  0  0  0  0
 25 27  1  0  0  0  0
 25 31  2  0  0  0  0
 25 40  1  0  0  0  0
 26 29  1  0  0  0  0
 26 32  2  0  0  0  0
 26 41  1  0  0  0  0
 27 53  1  0  0  0  0
 28 54  1  0  0  0  0
 29 55  1  0  0  0  0
 30 56  1  0  0  0  0
 31 57  1  0  0  0  0
 32 58  1  0  0  0  0
 33 35  2  0  0  0  0
 33 36  1  0  0  0  0
 33 42  1  0  0  0  0
 34 35  1  0  0  0  0
 34 37  1  0  0  0  0
 34 43  2  0  0  0  0
 35 61  1  0  0  0  0
 38 45  1  0  0  0  0
 39 46  1  0  0  0  0
 40 47  1  0  0  0  0
 41 48  1  0  0  0  0
 42 44  2  0  0  0  0
 42 62  1  0  0  0  0
 43 44  1  0  0  0  0
 43 63  1  0  0  0  0
 44 64  1  0  0  0  0
 45 65  1  0  0  0  0
 45 66  1  0  0  0  0
 45 67  1  0  0  0  0
 46 68  1  0  0  0  0
 46 69  1  0  0  0  0
 46 70  1  0  0  0  0
 47 71  1  0  0  0  0
 47 72  1  0  0  0  0
 47 73  1  0  0  0  0
 48 74  1  0  0  0  0
 48 75  1  0  0  0  0
 48 76  1  0  0  0  0
M  END
> <PUBCHEM_COMPOUND_CID>
136027061

> <PUBCHEM_COMPOUND_CANONICALIZED>
1

> <PUBCHEM_CACTVS_COMPLEXITY>
1280

> <PUBCHEM_CACTVS_HBOND_ACCEPTOR>
10

> <PUBCHEM_CACTVS_HBOND_DONOR>
14

> <PUBCHEM_CACTVS_ROTATABLE_BOND>
16

> <PUBCHEM_CACTVS_SUBSKEYS>
AAADcfB/8AAAAAAAAAAAAAAAAAAAAAAAAAAwYMAAAAAAAAABUAAAHgAYAAAADAiBmAAzwILiAACoAyVycACSAAClAgAMiAEwZNgIILLAlZGEIQhwnADIyYcYi8COAAACQAAAAAAAAASAAAAAAAAAAAAAAA==

> <PUBCHEM_IUPAC_OPENEYE_NAME>
N1,N3-bis[3,5-bis(N-guanidino-C-methyl-carbonimidoyl)phenyl]benzene-1,3-dicarboxamide

> <PUBCHEM_IUPAC_CAS_NAME>
N1,N3-bis[3,5-bis[1-(carbamimidoylhydrazinylidene)ethyl]phenyl]benzene-1,3-dicarboxamide

> <PUBCHEM_IUPAC_NAME_MARKUP>
1-<I>N</I>,3-<I>N</I>-bis[3,5-bis(<I>N</I>-carbamimidamido-<I>C</I>-methylcarbonimidoyl)phenyl]benzene-1,3-dicarboxamide

> <PUBCHEM_IUPAC_NAME>
1-N,3-N-bis[3,5-bis(N-carbamimidamido-C-methylcarbonimidoyl)phenyl]benzene-1,3-dicarboxamide

> <PUBCHEM_IUPAC_SYSTEMATIC_NAME>
N1,N3-bis[3,5-bis(N-carbamimidamido-C-methyl-carbonimidoyl)phenyl]benzene-1,3-dicarboxamide

> <PUBCHEM_IUPAC_TRADITIONAL_NAME>
N,N'-bis[3,5-bis(N-guanidino-C-methyl-carbonimidoyl)phenyl]isophthalamide

> <PUBCHEM_IUPAC_INCHI>
InChI=1S/C32H40N18O2/c1-15(43-47-29(33)34)21-9-22(16(2)44-48-30(35)36)12-25(11-21)41-27(51)19-6-5-7-20(8-19)28(52)42-26-13-23(17(3)45-49-31(37)38)10-24(14-26)18(4)46-50-32(39)40/h5-14H,1-4H3,(H,41,51)(H,42,52)(H4,33,34,47)(H4,35,36,48)(H4,37,38,49)(H4,39,40,50)

> <PUBCHEM_IUPAC_INCHIKEY>
NKGLJTITEFZKAN-UHFFFAOYSA-N

> <PUBCHEM_XLOGP3_AA>
-0.5

> <PUBCHEM_EXACT_MASS>
708.35816259

> <PUBCHEM_MOLECULAR_FORMULA>
C32H40N18O2

> <PUBCHEM_MOLECULAR_WEIGHT>
708.8

> <PUBCHEM_SMILES>
CC(=NNC(=N)N)C1=CC(=CC(=C1)NC(=O)C2=CC(=CC=C2)C(=O)NC3=CC(=CC(=C3)C(=NNC(=N)N)C)C(=NNC(=N)N)C)C(=NNC(=N)N)C

> <PUBCHEM_OPENEYE_CAN_SMILES>
CC(=NNC(=N)N)C1=CC(=CC(=C1)NC(=O)C2=CC(=CC=C2)C(=O)NC3=CC(=CC(=C3)C(=NNC(=N)N)C)C(=NNC(=N)N)C)C(=NNC(=N)N)C

> <PUBCHEM_OPENEYE_ISO_SMILES>
CC(=NNC(=N)N)C1=CC(=CC(=C1)NC(=O)C2=CC(=CC=C2)C(=O)NC3=CC(=CC(=C3)C(=NNC(=N)N)C)C(=NNC(=N)N)C)C(=NNC(=N)N)C

> <PUBCHEM_CACTVS_TPSA>
355

> <PUBCHEM_MONOISOTOPIC_WEIGHT>
708.35816259

> <PUBCHEM_TOTAL_CHARGE>
0

> <PUBCHEM_HEAVY_ATOM_COUNT>
52

> <PUBCHEM_ATOM_DEF_STEREO_COUNT>
0

> <PUBCHEM_ATOM_UDEF_STEREO_COUNT>
0

> <PUBCHEM_BOND_DEF_STEREO_COUNT>
0

> <PUBCHEM_BOND_UDEF_STEREO_COUNT>
4

> <PUBCHEM_ISOTOPIC_ATOM_COUNT>
0

> <PUBCHEM_COMPONENT_COUNT>
1

> <PUBCHEM_CACTVS_TAUTO_COUNT>
-1

> <PUBCHEM_COORDINATE_TYPE>
1
5
255

> <PUBCHEM_BONDANNOTATIONS>
21  27  8
21  28  8
22  29  8
22  30  8
23  28  8
23  31  8
24  30  8
24  32  8
25  27  8
25  31  8
26  29  8
26  32  8
33  35  8
33  42  8
34  35  8
34  43  8
42  44  8
43  44  8
5  38  1
6  39  1
7  40  1
8  41  1

$$$$
