49830814
  -OEChem-03202502532D

 45 49  0     0  0  0  0  0  0999 V2000
    5.6783    0.0421    0.0000 S   0  0  0  0  0  0  0  0  0  0  0  0
    3.0000    1.3468    0.0000 N   0  0  0  0  0  0  0  0  0  0  0  0
    3.8047   -3.2368    0.0000 N   0  0  0  0  0  0  0  0  0  0  0  0
    2.1953   -3.2368    0.0000 N   0  0  0  0  0  0  0  0  0  0  0  0
    3.8660    2.8468    0.0000 N   0  0  0  0  0  0  0  0  0  0  0  0
    6.9209    5.4536    0.0000 N   0  0  0  0  0  0  0  0  0  0  0  0
    4.7320    1.3468    0.0000 C   0  0  0  0  0  0  0  0  0  0  0  0
    5.6783    1.6515    0.0000 C   0  0  0  0  0  0  0  0  0  0  0  0
    4.7320    0.3468    0.0000 C   0  0  0  0  0  0  0  0  0  0  0  0
    3.8660   -0.1532    0.0000 C   0  0  0  0  0  0  0  0  0  0  0  0
    5.9889    2.6021    0.0000 C   0  0  0  0  0  0  0  0  0  0  0  0
    3.8660    1.8468    0.0000 C   0  0  0  0  0  0  0  0  0  0  0  0
    6.2619    0.8468    0.0000 C   0  0  0  0  0  0  0  0  0  0  0  0
    3.8660   -1.1532    0.0000 C   0  0  0  0  0  0  0  0  0  0  0  0
    3.0000    0.3468    0.0000 C   0  0  0  0  0  0  0  0  0  0  0  0
    3.0000   -2.6532    0.0000 C   0  0  0  0  0  0  0  0  0  0  0  0
    3.5000   -4.1830    0.0000 C   0  0  0  0  0  0  0  0  0  0  0  0
    6.9674    2.8083    0.0000 C   0  0  0  0  0  0  0  0  0  0  0  0
    5.3211    3.3464    0.0000 C   0  0  0  0  0  0  0  0  0  0  0  0
    2.5000   -4.1830    0.0000 C   0  0  0  0  0  0  0  0  0  0  0  0
    3.0000   -1.6532    0.0000 C   0  0  0  0  0  0  0  0  0  0  0  0
    7.2781    3.7588    0.0000 C   0  0  0  0  0  0  0  0  0  0  0  0
    5.6318    4.2969    0.0000 C   0  0  0  0  0  0  0  0  0  0  0  0
    6.6103    4.5031    0.0000 C   0  0  0  0  0  0  0  0  0  0  0  0
    4.0000   -5.0490    0.0000 C   0  0  0  0  0  0  0  0  0  0  0  0
    2.0000   -5.0490    0.0000 C   0  0  0  0  0  0  0  0  0  0  0  0
    3.5000   -5.9151    0.0000 C   0  0  0  0  0  0  0  0  0  0  0  0
    2.5000   -5.9151    0.0000 C   0  0  0  0  0  0  0  0  0  0  0  0
    6.8819    0.8468    0.0000 H   0  0  0  0  0  0  0  0  0  0  0  0
    4.4030   -1.4632    0.0000 H   0  0  0  0  0  0  0  0  0  0  0  0
    2.4631    0.0368    0.0000 H   0  0  0  0  0  0  0  0  0  0  0  0
    7.3815    2.3468    0.0000 H   0  0  0  0  0  0  0  0  0  0  0  0
    4.7144    3.2185    0.0000 H   0  0  0  0  0  0  0  0  0  0  0  0
    2.4631   -1.3432    0.0000 H   0  0  0  0  0  0  0  0  0  0  0  0
    4.3940   -3.0442    0.0000 H   0  0  0  0  0  0  0  0  0  0  0  0
    7.8848    3.8866    0.0000 H   0  0  0  0  0  0  0  0  0  0  0  0
    5.2177    4.7583    0.0000 H   0  0  0  0  0  0  0  0  0  0  0  0
    4.6200   -5.0490    0.0000 H   0  0  0  0  0  0  0  0  0  0  0  0
    3.3291    3.1568    0.0000 H   0  0  0  0  0  0  0  0  0  0  0  0
    4.4030    3.1568    0.0000 H   0  0  0  0  0  0  0  0  0  0  0  0
    1.3800   -5.0490    0.0000 H   0  0  0  0  0  0  0  0  0  0  0  0
    3.8100   -6.4520    0.0000 H   0  0  0  0  0  0  0  0  0  0  0  0
    2.1900   -6.4520    0.0000 H   0  0  0  0  0  0  0  0  0  0  0  0
    7.5276    5.5815    0.0000 H   0  0  0  0  0  0  0  0  0  0  0  0
    6.5069    5.9151    0.0000 H   0  0  0  0  0  0  0  0  0  0  0  0
  1  9  1  0  0  0  0
  1 13  1  0  0  0  0
  2 12  2  0  0  0  0
  2 15  1  0  0  0  0
  3 16  1  0  0  0  0
  3 17  1  0  0  0  0
  3 35  1  0  0  0  0
  4 16  2  0  0  0  0
  4 20  1  0  0  0  0
  5 12  1  0  0  0  0
  5 39  1  0  0  0  0
  5 40  1  0  0  0  0
  6 24  1  0  0  0  0
  6 44  1  0  0  0  0
  6 45  1  0  0  0  0
  7  8  1  0  0  0  0
  7  9  2  0  0  0  0
  7 12  1  0  0  0  0
  8 11  1  0  0  0  0
  8 13  2  0  0  0  0
  9 10  1  0  0  0  0
 10 14  1  0  0  0  0
 10 15  2  0  0  0  0
 11 18  2  0  0  0  0
 11 19  1  0  0  0  0
 13 29  1  0  0  0  0
 14 21  2  3  0  0  0
 14 30  1  0  0  0  0
 15 31  1  0  0  0  0
 16 21  1  0  0  0  0
 17 20  1  0  0  0  0
 17 25  2  0  0  0  0
 18 22  1  0  0  0  0
 18 32  1  0  0  0  0
 19 23  2  0  0  0  0
 19 33  1  0  0  0  0
 20 26  2  0  0  0  0
 21 34  1  0  0  0  0
 22 24  2  0  0  0  0
 22 36  1  0  0  0  0
 23 24  1  0  0  0  0
 23 37  1  0  0  0  0
 25 27  1  0  0  0  0
 25 38  1  0  0  0  0
 26 28  1  0  0  0  0
 26 41  1  0  0  0  0
 27 28  2  0  0  0  0
 27 42  1  0  0  0  0
 28 43  1  0  0  0  0
M  END
> <PUBCHEM_COMPOUND_CID>
49830814

> <PUBCHEM_COMPOUND_CANONICALIZED>
1

> <PUBCHEM_CACTVS_COMPLEXITY>
563

> <PUBCHEM_CACTVS_HBOND_ACCEPTOR>
5

> <PUBCHEM_CACTVS_HBOND_DONOR>
3

> <PUBCHEM_CACTVS_ROTATABLE_BOND>
3

> <PUBCHEM_CACTVS_SUBSKEYS>
AAADceB7gABAAAAAAAAAAAAAAAAAAWJAAAA8YIAAAAAAAFgB/gAAHAQQAAAADAjFXwS98fbJkAikAzZnZACDgK2xGrAJ2TA4dJiIaOLgmZGUIAxokALoyCcQgMAOiAAAAAAAACAQAAAAAAAAQAAAAAAAAA==

> <PUBCHEM_IUPAC_OPENEYE_NAME>
3-(4-aminophenyl)-7-[2-(1H-benzimidazol-2-yl)vinyl]thieno[3,2-c]pyridin-4-amine

> <PUBCHEM_IUPAC_CAS_NAME>
3-(4-aminophenyl)-7-[2-(1H-benzimidazol-2-yl)ethenyl]-4-thieno[3,2-c]pyridinamine

> <PUBCHEM_IUPAC_NAME_MARKUP>
3-(4-aminophenyl)-7-[2-(1<I>H</I>-benzimidazol-2-yl)ethenyl]thieno[3,2-c]pyridin-4-amine

> <PUBCHEM_IUPAC_NAME>
3-(4-aminophenyl)-7-[2-(1H-benzimidazol-2-yl)ethenyl]thieno[3,2-c]pyridin-4-amine

> <PUBCHEM_IUPAC_SYSTEMATIC_NAME>
3-(4-aminophenyl)-7-[2-(1H-benzimidazol-2-yl)ethenyl]thieno[3,2-c]pyridin-4-amine

> <PUBCHEM_IUPAC_TRADITIONAL_NAME>
[4-[4-amino-7-[2-(1H-benzimidazol-2-yl)vinyl]thieno[3,2-c]pyridin-3-yl]phenyl]amine

> <PUBCHEM_IUPAC_INCHI>
InChI=1S/C22H17N5S/c23-15-8-5-13(6-9-15)16-12-28-21-14(11-25-22(24)20(16)21)7-10-19-26-17-3-1-2-4-18(17)27-19/h1-12H,23H2,(H2,24,25)(H,26,27)

> <PUBCHEM_IUPAC_INCHIKEY>
QXRJBJVCBQSLTA-UHFFFAOYSA-N

> <PUBCHEM_XLOGP3_AA>
4.3

> <PUBCHEM_EXACT_MASS>
383.12046674

> <PUBCHEM_MOLECULAR_FORMULA>
C22H17N5S

> <PUBCHEM_MOLECULAR_WEIGHT>
383.5

> <PUBCHEM_SMILES>
C1=CC=C2C(=C1)NC(=N2)C=CC3=CN=C(C4=C3SC=C4C5=CC=C(C=C5)N)N

> <PUBCHEM_OPENEYE_CAN_SMILES>
C1=CC=C2C(=C1)NC(=N2)C=CC3=CN=C(C4=C3SC=C4C5=CC=C(C=C5)N)N

> <PUBCHEM_OPENEYE_ISO_SMILES>
C1=CC=C2C(=C1)NC(=N2)C=CC3=CN=C(C4=C3SC=C4C5=CC=C(C=C5)N)N

> <PUBCHEM_CACTVS_TPSA>
122

> <PUBCHEM_MONOISOTOPIC_WEIGHT>
383.12046674

> <PUBCHEM_TOTAL_CHARGE>
0

> <PUBCHEM_HEAVY_ATOM_COUNT>
28

> <PUBCHEM_ATOM_DEF_STEREO_COUNT>
0

> <PUBCHEM_ATOM_UDEF_STEREO_COUNT>
0

> <PUBCHEM_BOND_DEF_STEREO_COUNT>
0

> <PUBCHEM_BOND_UDEF_STEREO_COUNT>
1

> <PUBCHEM_ISOTOPIC_ATOM_COUNT>
0

> <PUBCHEM_COMPONENT_COUNT>
1

> <PUBCHEM_CACTVS_TAUTO_COUNT>
-1

> <PUBCHEM_COORDINATE_TYPE>
1
5
255

> <PUBCHEM_BONDANNOTATIONS>
1  13  8
1  9  8
10  15  8
11  18  8
11  19  8
14  21  1
17  20  8
17  25  8
18  22  8
19  23  8
2  12  8
2  15  8
20  26  8
22  24  8
23  24  8
25  27  8
26  28  8
27  28  8
3  16  8
3  17  8
4  16  8
4  20  8
7  12  8
7  8  8
7  9  8
8  13  8
9  10  8

$$$$
