16086114
  -OEChem-03202504482D

 67 71  0     0  0  0  0  0  0999 V2000
    3.3660   -1.4381    0.0000 F   0  0  0  0  0  0  0  0  0  0  0  0
    2.0000   -1.0721    0.0000 F   0  0  0  0  0  0  0  0  0  0  0  0
    2.3660    0.2940    0.0000 F   0  0  0  0  0  0  0  0  0  0  0  0
   19.3923   -0.0312    0.0000 O   0  0  0  0  0  0  0  0  0  0  0  0
    7.1962    0.9279    0.0000 O   0  0  0  0  0  0  0  0  0  0  0  0
   17.6564    0.9621    0.0000 N   0  0  0  0  0  0  0  0  0  0  0  0
   15.0564    1.4521    0.0000 N   0  0  0  0  0  0  0  0  0  0  0  0
   13.2862    1.4626    0.0000 N   0  0  0  0  0  0  0  0  0  0  0  0
   14.1923   -0.0929    0.0000 N   0  0  0  0  0  0  0  0  0  0  0  0
    6.3301   -0.5721    0.0000 N   0  0  0  0  0  0  0  0  0  0  0  0
   18.5205    1.4654    0.0000 C   0  0  0  0  0  0  0  0  0  0  0  0
   17.6602   -0.0379    0.0000 C   0  0  0  0  0  0  0  0  0  0  0  0
   16.7884    1.4588    0.0000 C   0  0  0  0  0  0  0  0  0  0  0  0
   19.3884    0.9688    0.0000 C   0  0  0  0  0  0  0  0  0  0  0  0
   18.5282   -0.5346    0.0000 C   0  0  0  0  0  0  0  0  0  0  0  0
   15.9244    0.9554    0.0000 C   0  0  0  0  0  0  0  0  0  0  0  0
   14.1923    0.9487    0.0000 C   0  0  0  0  0  0  0  0  0  0  0  0
   10.6603   -0.0721    0.0000 C   0  0  0  0  0  0  0  0  0  0  0  0
    9.7942   -0.5721    0.0000 C   0  0  0  0  0  0  0  0  0  0  0  0
   12.3923   -0.0721    0.0000 C   0  0  0  0  0  0  0  0  0  0  0  0
   12.3923    0.9279    0.0000 C   0  0  0  0  0  0  0  0  0  0  0  0
   11.5263   -0.5721    0.0000 C   0  0  0  0  0  0  0  0  0  0  0  0
    9.7942   -1.5721    0.0000 C   0  0  0  0  0  0  0  0  0  0  0  0
   10.6603    0.9279    0.0000 C   0  0  0  0  0  0  0  0  0  0  0  0
   11.5263    1.4279    0.0000 C   0  0  0  0  0  0  0  0  0  0  0  0
    8.9282   -0.0721    0.0000 C   0  0  0  0  0  0  0  0  0  0  0  0
   13.2862   -0.6067    0.0000 C   0  0  0  0  0  0  0  0  0  0  0  0
    8.0622   -0.5721    0.0000 C   0  0  0  0  0  0  0  0  0  0  0  0
    8.9282   -2.0721    0.0000 C   0  0  0  0  0  0  0  0  0  0  0  0
    8.0622   -1.5721    0.0000 C   0  0  0  0  0  0  0  0  0  0  0  0
   10.6603   -2.0721    0.0000 C   0  0  0  0  0  0  0  0  0  0  0  0
    7.1962   -0.0721    0.0000 C   0  0  0  0  0  0  0  0  0  0  0  0
    5.4641   -0.0721    0.0000 C   0  0  0  0  0  0  0  0  0  0  0  0
    4.5981   -0.5721    0.0000 C   0  0  0  0  0  0  0  0  0  0  0  0
    3.7320   -0.0721    0.0000 C   0  0  0  0  0  0  0  0  0  0  0  0
    5.4641    0.9279    0.0000 C   0  0  0  0  0  0  0  0  0  0  0  0
    3.7320    0.9279    0.0000 C   0  0  0  0  0  0  0  0  0  0  0  0
    4.5981    1.4279    0.0000 C   0  0  0  0  0  0  0  0  0  0  0  0
    2.8660   -0.5721    0.0000 C   0  0  0  0  0  0  0  0  0  0  0  0
   18.9172    1.9419    0.0000 H   0  0  0  0  0  0  0  0  0  0  0  0
   18.1201    1.9388    0.0000 H   0  0  0  0  0  0  0  0  0  0  0  0
   17.0493    0.0674    0.0000 H   0  0  0  0  0  0  0  0  0  0  0  0
   17.4504   -0.6213    0.0000 H   0  0  0  0  0  0  0  0  0  0  0  0
   17.1851    1.9352    0.0000 H   0  0  0  0  0  0  0  0  0  0  0  0
   16.3881    1.9322    0.0000 H   0  0  0  0  0  0  0  0  0  0  0  0
   19.9994    0.8635    0.0000 H   0  0  0  0  0  0  0  0  0  0  0  0
   19.5982    1.5522    0.0000 H   0  0  0  0  0  0  0  0  0  0  0  0
   18.1315   -1.0110    0.0000 H   0  0  0  0  0  0  0  0  0  0  0  0
   18.9285   -1.0080    0.0000 H   0  0  0  0  0  0  0  0  0  0  0  0
   15.5277    0.4789    0.0000 H   0  0  0  0  0  0  0  0  0  0  0  0
   16.3247    0.4820    0.0000 H   0  0  0  0  0  0  0  0  0  0  0  0
   15.0540    2.0721    0.0000 H   0  0  0  0  0  0  0  0  0  0  0  0
   11.5263   -1.1921    0.0000 H   0  0  0  0  0  0  0  0  0  0  0  0
   10.1233    1.2379    0.0000 H   0  0  0  0  0  0  0  0  0  0  0  0
   11.5263    2.0479    0.0000 H   0  0  0  0  0  0  0  0  0  0  0  0
    8.9282    0.5479    0.0000 H   0  0  0  0  0  0  0  0  0  0  0  0
   13.2791   -1.2267    0.0000 H   0  0  0  0  0  0  0  0  0  0  0  0
    8.9282   -2.6921    0.0000 H   0  0  0  0  0  0  0  0  0  0  0  0
    7.5252   -1.8821    0.0000 H   0  0  0  0  0  0  0  0  0  0  0  0
   10.3503   -2.6090    0.0000 H   0  0  0  0  0  0  0  0  0  0  0  0
   11.1972   -2.3821    0.0000 H   0  0  0  0  0  0  0  0  0  0  0  0
   10.9703   -1.5351    0.0000 H   0  0  0  0  0  0  0  0  0  0  0  0
    6.3301   -1.1921    0.0000 H   0  0  0  0  0  0  0  0  0  0  0  0
    4.5981   -1.1921    0.0000 H   0  0  0  0  0  0  0  0  0  0  0  0
    6.0010    1.2379    0.0000 H   0  0  0  0  0  0  0  0  0  0  0  0
    3.1951    1.2379    0.0000 H   0  0  0  0  0  0  0  0  0  0  0  0
    4.5981    2.0479    0.0000 H   0  0  0  0  0  0  0  0  0  0  0  0
  1 39  1  0  0  0  0
  2 39  1  0  0  0  0
  3 39  1  0  0  0  0
  4 14  1  0  0  0  0
  4 15  1  0  0  0  0
  5 32  2  0  0  0  0
  6 11  1  0  0  0  0
  6 12  1  0  0  0  0
  6 13  1  0  0  0  0
  7 16  1  0  0  0  0
  7 17  1  0  0  0  0
  7 52  1  0  0  0  0
  8 17  1  0  0  0  0
  8 21  2  0  0  0  0
  9 17  2  0  0  0  0
  9 27  1  0  0  0  0
 10 32  1  0  0  0  0
 10 33  1  0  0  0  0
 10 63  1  0  0  0  0
 11 14  1  0  0  0  0
 11 40  1  0  0  0  0
 11 41  1  0  0  0  0
 12 15  1  0  0  0  0
 12 42  1  0  0  0  0
 12 43  1  0  0  0  0
 13 16  1  0  0  0  0
 13 44  1  0  0  0  0
 13 45  1  0  0  0  0
 14 46  1  0  0  0  0
 14 47  1  0  0  0  0
 15 48  1  0  0  0  0
 15 49  1  0  0  0  0
 16 50  1  0  0  0  0
 16 51  1  0  0  0  0
 18 19  1  0  0  0  0
 18 22  2  0  0  0  0
 18 24  1  0  0  0  0
 19 23  2  0  0  0  0
 19 26  1  0  0  0  0
 20 21  1  0  0  0  0
 20 22  1  0  0  0  0
 20 27  2  0  0  0  0
 21 25  1  0  0  0  0
 22 53  1  0  0  0  0
 23 29  1  0  0  0  0
 23 31  1  0  0  0  0
 24 25  2  0  0  0  0
 24 54  1  0  0  0  0
 25 55  1  0  0  0  0
 26 28  2  0  0  0  0
 26 56  1  0  0  0  0
 27 57  1  0  0  0  0
 28 30  1  0  0  0  0
 28 32  1  0  0  0  0
 29 30  2  0  0  0  0
 29 58  1  0  0  0  0
 30 59  1  0  0  0  0
 31 60  1  0  0  0  0
 31 61  1  0  0  0  0
 31 62  1  0  0  0  0
 33 34  1  0  0  0  0
 33 36  2  0  0  0  0
 34 35  2  0  0  0  0
 34 64  1  0  0  0  0
 35 37  1  0  0  0  0
 35 39  1  0  0  0  0
 36 38  1  0  0  0  0
 36 65  1  0  0  0  0
 37 38  2  0  0  0  0
 37 66  1  0  0  0  0
 38 67  1  0  0  0  0
M  END
> <PUBCHEM_COMPOUND_CID>
16086114

> <PUBCHEM_COMPOUND_CANONICALIZED>
1

> <PUBCHEM_CACTVS_COMPLEXITY>
795

> <PUBCHEM_CACTVS_HBOND_ACCEPTOR>
9

> <PUBCHEM_CACTVS_HBOND_DONOR>
2

> <PUBCHEM_CACTVS_ROTATABLE_BOND>
7

> <PUBCHEM_CACTVS_SUBSKEYS>
AAADceB7sYAAAAAAAAAAAAAAAAAAAAAAAAA8eMECAAAAAACx9AAAHwAQAAAADAjhnhY/0PfIFACoAzV3dACCgCk1AqAJ2KE4ZNiKaLLA3dGXJQholALYyacYiMCOyAACQAASAACQAASAACQAAAAAAAAAAA==

> <PUBCHEM_IUPAC_OPENEYE_NAME>
4-methyl-3-[2-(2-morpholinoethylamino)quinazolin-6-yl]-N-[3-(trifluoromethyl)phenyl]benzamide

> <PUBCHEM_IUPAC_CAS_NAME>
4-methyl-3-[2-[2-(4-morpholinyl)ethylamino]-6-quinazolinyl]-N-[3-(trifluoromethyl)phenyl]benzamide

> <PUBCHEM_IUPAC_NAME_MARKUP>
4-methyl-3-[2-(2-morpholin-4-ylethylamino)quinazolin-6-yl]-<I>N</I>-[3-(trifluoromethyl)phenyl]benzamide

> <PUBCHEM_IUPAC_NAME>
4-methyl-3-[2-(2-morpholin-4-ylethylamino)quinazolin-6-yl]-N-[3-(trifluoromethyl)phenyl]benzamide

> <PUBCHEM_IUPAC_SYSTEMATIC_NAME>
4-methyl-3-[2-(2-morpholin-4-ylethylamino)quinazolin-6-yl]-N-[3-(trifluoromethyl)phenyl]benzamide

> <PUBCHEM_IUPAC_TRADITIONAL_NAME>
4-methyl-3-[2-(2-morpholinoethylamino)quinazolin-6-yl]-N-[3-(trifluoromethyl)phenyl]benzamide

> <PUBCHEM_IUPAC_INCHI>
InChI=1S/C29H28F3N5O2/c1-19-5-6-21(27(38)35-24-4-2-3-23(17-24)29(30,31)32)16-25(19)20-7-8-26-22(15-20)18-34-28(36-26)33-9-10-37-11-13-39-14-12-37/h2-8,15-18H,9-14H2,1H3,(H,35,38)(H,33,34,36)

> <PUBCHEM_IUPAC_INCHIKEY>
DVRSTRMZTAPMKO-UHFFFAOYSA-N

> <PUBCHEM_XLOGP3_AA>
5.2

> <PUBCHEM_EXACT_MASS>
535.21950964

> <PUBCHEM_MOLECULAR_FORMULA>
C29H28F3N5O2

> <PUBCHEM_MOLECULAR_WEIGHT>
535.6

> <PUBCHEM_SMILES>
CC1=C(C=C(C=C1)C(=O)NC2=CC=CC(=C2)C(F)(F)F)C3=CC4=CN=C(N=C4C=C3)NCCN5CCOCC5

> <PUBCHEM_OPENEYE_CAN_SMILES>
CC1=C(C=C(C=C1)C(=O)NC2=CC=CC(=C2)C(F)(F)F)C3=CC4=CN=C(N=C4C=C3)NCCN5CCOCC5

> <PUBCHEM_OPENEYE_ISO_SMILES>
CC1=C(C=C(C=C1)C(=O)NC2=CC=CC(=C2)C(F)(F)F)C3=CC4=CN=C(N=C4C=C3)NCCN5CCOCC5

> <PUBCHEM_CACTVS_TPSA>
79.4

> <PUBCHEM_MONOISOTOPIC_WEIGHT>
535.21950964

> <PUBCHEM_TOTAL_CHARGE>
0

> <PUBCHEM_HEAVY_ATOM_COUNT>
39

> <PUBCHEM_ATOM_DEF_STEREO_COUNT>
0

> <PUBCHEM_ATOM_UDEF_STEREO_COUNT>
0

> <PUBCHEM_BOND_DEF_STEREO_COUNT>
0

> <PUBCHEM_BOND_UDEF_STEREO_COUNT>
0

> <PUBCHEM_ISOTOPIC_ATOM_COUNT>
0

> <PUBCHEM_COMPONENT_COUNT>
1

> <PUBCHEM_CACTVS_TAUTO_COUNT>
-1

> <PUBCHEM_COORDINATE_TYPE>
1
5
255

> <PUBCHEM_BONDANNOTATIONS>
18  22  8
18  24  8
19  23  8
19  26  8
20  21  8
20  22  8
20  27  8
21  25  8
23  29  8
24  25  8
26  28  8
28  30  8
29  30  8
33  34  8
33  36  8
34  35  8
35  37  8
36  38  8
37  38  8
8  17  8
8  21  8
9  17  8
9  27  8

$$$$
