6918469
  -OEChem-03202506372D

 35 36  0     0  0  0  0  0  0999 V2000
    6.8671   -2.6550    0.0000 O   0  0  0  0  0  0  0  0  0  0  0  0
    3.4030   -2.6550    0.0000 O   0  0  0  0  0  0  0  0  0  0  0  0
    3.4030    2.3450    0.0000 O   0  0  0  0  0  0  0  0  0  0  0  0
    5.1350    3.3450    0.0000 O   0  0  0  0  0  0  0  0  0  0  0  0
    2.5369   -1.1550    0.0000 O   0  0  0  0  0  0  0  0  0  0  0  0
    3.4030    0.3450    0.0000 O   0  0  0  0  0  0  0  0  0  0  0  0
    5.1350    0.3450    0.0000 C   0  0  0  0  0  0  0  0  0  0  0  0
    5.1350   -0.6550    0.0000 C   0  0  0  0  0  0  0  0  0  0  0  0
    6.0010    0.8450    0.0000 C   0  0  0  0  0  0  0  0  0  0  0  0
    4.2690   -1.1550    0.0000 C   0  0  0  0  0  0  0  0  0  0  0  0
    6.0010   -1.1550    0.0000 C   0  0  0  0  0  0  0  0  0  0  0  0
    4.2690    0.8450    0.0000 C   0  0  0  0  0  0  0  0  0  0  0  0
    6.0010    1.8450    0.0000 C   0  0  0  0  0  0  0  0  0  0  0  0
    4.2690   -2.1550    0.0000 C   0  0  0  0  0  0  0  0  0  0  0  0
    6.0010   -2.1550    0.0000 C   0  0  0  0  0  0  0  0  0  0  0  0
    4.2690    1.8450    0.0000 C   0  0  0  0  0  0  0  0  0  0  0  0
    6.8671    0.3450    0.0000 C   0  0  0  0  0  0  0  0  0  0  0  0
    5.1350    2.3450    0.0000 C   0  0  0  0  0  0  0  0  0  0  0  0
    5.1350   -2.6550    0.0000 C   0  0  0  0  0  0  0  0  0  0  0  0
    3.4030   -0.6550    0.0000 C   0  0  0  0  0  0  0  0  0  0  0  0
    6.8671   -3.6550    0.0000 C   0  0  0  0  0  0  0  0  0  0  0  0
    6.5380   -0.8450    0.0000 H   0  0  0  0  0  0  0  0  0  0  0  0
    3.7320    0.5350    0.0000 H   0  0  0  0  0  0  0  0  0  0  0  0
    6.5380    2.1550    0.0000 H   0  0  0  0  0  0  0  0  0  0  0  0
    6.5571   -0.1919    0.0000 H   0  0  0  0  0  0  0  0  0  0  0  0
    7.4040    0.0350    0.0000 H   0  0  0  0  0  0  0  0  0  0  0  0
    7.1771    0.8819    0.0000 H   0  0  0  0  0  0  0  0  0  0  0  0
    5.1350   -3.2750    0.0000 H   0  0  0  0  0  0  0  0  0  0  0  0
    3.4030   -3.2750    0.0000 H   0  0  0  0  0  0  0  0  0  0  0  0
    3.4030    2.9650    0.0000 H   0  0  0  0  0  0  0  0  0  0  0  0
    5.6720    3.6550    0.0000 H   0  0  0  0  0  0  0  0  0  0  0  0
    6.2471   -3.6550    0.0000 H   0  0  0  0  0  0  0  0  0  0  0  0
    6.8671   -4.2750    0.0000 H   0  0  0  0  0  0  0  0  0  0  0  0
    7.4871   -3.6550    0.0000 H   0  0  0  0  0  0  0  0  0  0  0  0
    2.0000   -0.8450    0.0000 H   0  0  0  0  0  0  0  0  0  0  0  0
  1 15  1  0  0  0  0
  1 21  1  0  0  0  0
  2 14  1  0  0  0  0
  2 29  1  0  0  0  0
  3 16  1  0  0  0  0
  3 30  1  0  0  0  0
  4 18  1  0  0  0  0
  4 31  1  0  0  0  0
  5 20  1  0  0  0  0
  5 35  1  0  0  0  0
  6 20  2  0  0  0  0
  7  8  1  0  0  0  0
  7  9  1  0  0  0  0
  7 12  2  0  0  0  0
  8 10  2  0  0  0  0
  8 11  1  0  0  0  0
  9 13  2  0  0  0  0
  9 17  1  0  0  0  0
 10 14  1  0  0  0  0
 10 20  1  0  0  0  0
 11 15  2  0  0  0  0
 11 22  1  0  0  0  0
 12 16  1  0  0  0  0
 12 23  1  0  0  0  0
 13 18  1  0  0  0  0
 13 24  1  0  0  0  0
 14 19  2  0  0  0  0
 15 19  1  0  0  0  0
 16 18  2  0  0  0  0
 17 25  1  0  0  0  0
 17 26  1  0  0  0  0
 17 27  1  0  0  0  0
 19 28  1  0  0  0  0
 21 32  1  0  0  0  0
 21 33  1  0  0  0  0
 21 34  1  0  0  0  0
M  END
> <PUBCHEM_COMPOUND_CID>
6918469

> <PUBCHEM_COMPOUND_CANONICALIZED>
1

> <PUBCHEM_CACTVS_COMPLEXITY>
373

> <PUBCHEM_CACTVS_HBOND_ACCEPTOR>
6

> <PUBCHEM_CACTVS_HBOND_DONOR>
4

> <PUBCHEM_CACTVS_ROTATABLE_BOND>
3

> <PUBCHEM_CACTVS_SUBSKEYS>
AAADccBwOAAAAAAAAAAAAAAAAAAAAAAAAAAwYAAAAAAAAAABQAAAGgAACAAADASAmAIyDoAABgCIAiDSCAACCAAkIAAAiAEGiMgNJzaGNRqAcWEl4BUJuQeI7PzOoAABCAAYQABAAAIQADCAAAAAAAAAAA==

> <PUBCHEM_IUPAC_OPENEYE_NAME>
2-(4,5-dihydroxy-2-methyl-phenyl)-6-hydroxy-4-methoxy-benzoic acid

> <PUBCHEM_IUPAC_CAS_NAME>
2-(4,5-dihydroxy-2-methylphenyl)-6-hydroxy-4-methoxybenzoic acid

> <PUBCHEM_IUPAC_NAME_MARKUP>
2-(4,5-dihydroxy-2-methylphenyl)-6-hydroxy-4-methoxybenzoic acid

> <PUBCHEM_IUPAC_NAME>
2-(4,5-dihydroxy-2-methylphenyl)-6-hydroxy-4-methoxybenzoic acid

> <PUBCHEM_IUPAC_SYSTEMATIC_NAME>
4-methoxy-2-[2-methyl-4,5-bis(oxidanyl)phenyl]-6-oxidanyl-benzoic acid

> <PUBCHEM_IUPAC_TRADITIONAL_NAME>
2-(4,5-dihydroxy-2-methyl-phenyl)-6-hydroxy-4-methoxy-benzoic acid

> <PUBCHEM_IUPAC_INCHI>
InChI=1S/C15H14O6/c1-7-3-11(16)12(17)6-9(7)10-4-8(21-2)5-13(18)14(10)15(19)20/h3-6,16-18H,1-2H3,(H,19,20)

> <PUBCHEM_IUPAC_INCHIKEY>
ADPBTBPPIIKLEH-UHFFFAOYSA-N

> <PUBCHEM_XLOGP3_AA>
2.9

> <PUBCHEM_EXACT_MASS>
290.07903816

> <PUBCHEM_MOLECULAR_FORMULA>
C15H14O6

> <PUBCHEM_MOLECULAR_WEIGHT>
290.27

> <PUBCHEM_SMILES>
CC1=CC(=C(C=C1C2=C(C(=CC(=C2)OC)O)C(=O)O)O)O

> <PUBCHEM_OPENEYE_CAN_SMILES>
CC1=CC(=C(C=C1C2=C(C(=CC(=C2)OC)O)C(=O)O)O)O

> <PUBCHEM_OPENEYE_ISO_SMILES>
CC1=CC(=C(C=C1C2=C(C(=CC(=C2)OC)O)C(=O)O)O)O

> <PUBCHEM_CACTVS_TPSA>
107

> <PUBCHEM_MONOISOTOPIC_WEIGHT>
290.07903816

> <PUBCHEM_TOTAL_CHARGE>
0

> <PUBCHEM_HEAVY_ATOM_COUNT>
21

> <PUBCHEM_ATOM_DEF_STEREO_COUNT>
0

> <PUBCHEM_ATOM_UDEF_STEREO_COUNT>
0

> <PUBCHEM_BOND_DEF_STEREO_COUNT>
0

> <PUBCHEM_BOND_UDEF_STEREO_COUNT>
0

> <PUBCHEM_ISOTOPIC_ATOM_COUNT>
0

> <PUBCHEM_COMPONENT_COUNT>
1

> <PUBCHEM_CACTVS_TAUTO_COUNT>
-1

> <PUBCHEM_COORDINATE_TYPE>
1
5
255

> <PUBCHEM_BONDANNOTATIONS>
10  14  8
11  15  8
12  16  8
13  18  8
14  19  8
15  19  8
16  18  8
7  12  8
7  9  8
8  10  8
8  11  8
9  13  8

$$$$
