49830880
  -OEChem-03202503352D

 41 44  0     0  0  0  0  0  0999 V2000
    3.4030    3.1651    0.0000 O   0  0  0  0  0  0  0  0  0  0  0  0
    5.2152    0.3603    0.0000 N   0  0  0  0  0  0  0  0  0  0  0  0
    2.5369    1.6651    0.0000 N   0  0  0  0  0  0  0  0  0  0  0  0
    8.7988    1.1651    0.0000 N   0  0  0  0  0  0  0  0  0  0  0  0
    4.2690    0.6651    0.0000 C   0  0  0  0  0  0  0  0  0  0  0  0
    3.4030    0.1651    0.0000 C   0  0  0  0  0  0  0  0  0  0  0  0
    4.2690    1.6651    0.0000 C   0  0  0  0  0  0  0  0  0  0  0  0
    2.5369    0.6651    0.0000 C   0  0  0  0  0  0  0  0  0  0  0  0
    5.7988    1.1651    0.0000 C   0  0  0  0  0  0  0  0  0  0  0  0
    5.2152    1.9698    0.0000 C   0  0  0  0  0  0  0  0  0  0  0  0
    3.4030    2.1651    0.0000 C   0  0  0  0  0  0  0  0  0  0  0  0
    6.7988    1.1651    0.0000 C   0  0  0  0  0  0  0  0  0  0  0  0
    7.2988    0.2990    0.0000 C   0  0  0  0  0  0  0  0  0  0  0  0
    7.2988    2.0311    0.0000 C   0  0  0  0  0  0  0  0  0  0  0  0
    8.2988    0.2990    0.0000 C   0  0  0  0  0  0  0  0  0  0  0  0
    8.2988    2.0311    0.0000 C   0  0  0  0  0  0  0  0  0  0  0  0
    8.7988   -0.5670    0.0000 C   0  0  0  0  0  0  0  0  0  0  0  0
    9.7988   -0.5670    0.0000 C   0  0  0  0  0  0  0  0  0  0  0  0
   10.2988   -1.4330    0.0000 C   0  0  0  0  0  0  0  0  0  0  0  0
   11.2988   -1.4330    0.0000 C   0  0  0  0  0  0  0  0  0  0  0  0
    9.7988   -2.2990    0.0000 C   0  0  0  0  0  0  0  0  0  0  0  0
   11.7988   -2.2990    0.0000 C   0  0  0  0  0  0  0  0  0  0  0  0
   10.2988   -3.1651    0.0000 C   0  0  0  0  0  0  0  0  0  0  0  0
   11.2988   -3.1651    0.0000 C   0  0  0  0  0  0  0  0  0  0  0  0
    3.0044   -0.3099    0.0000 H   0  0  0  0  0  0  0  0  0  0  0  0
    3.8015   -0.3099    0.0000 H   0  0  0  0  0  0  0  0  0  0  0  0
    1.9264    0.7727    0.0000 H   0  0  0  0  0  0  0  0  0  0  0  0
    2.3249    0.0825    0.0000 H   0  0  0  0  0  0  0  0  0  0  0  0
    5.4078   -0.2290    0.0000 H   0  0  0  0  0  0  0  0  0  0  0  0
    5.4078    2.5591    0.0000 H   0  0  0  0  0  0  0  0  0  0  0  0
    2.0000    1.9751    0.0000 H   0  0  0  0  0  0  0  0  0  0  0  0
    6.9888   -0.2379    0.0000 H   0  0  0  0  0  0  0  0  0  0  0  0
    6.9888    2.5680    0.0000 H   0  0  0  0  0  0  0  0  0  0  0  0
    8.6088    2.5680    0.0000 H   0  0  0  0  0  0  0  0  0  0  0  0
    8.4888   -1.1039    0.0000 H   0  0  0  0  0  0  0  0  0  0  0  0
   10.1088   -0.0301    0.0000 H   0  0  0  0  0  0  0  0  0  0  0  0
   11.6088   -0.8961    0.0000 H   0  0  0  0  0  0  0  0  0  0  0  0
    9.1788   -2.2990    0.0000 H   0  0  0  0  0  0  0  0  0  0  0  0
   12.4188   -2.2990    0.0000 H   0  0  0  0  0  0  0  0  0  0  0  0
    9.9888   -3.7020    0.0000 H   0  0  0  0  0  0  0  0  0  0  0  0
   11.6088   -3.7020    0.0000 H   0  0  0  0  0  0  0  0  0  0  0  0
  1 11  2  0  0  0  0
  2  5  1  0  0  0  0
  2  9  1  0  0  0  0
  2 29  1  0  0  0  0
  3  8  1  0  0  0  0
  3 11  1  0  0  0  0
  3 31  1  0  0  0  0
  4 15  2  0  0  0  0
  4 16  1  0  0  0  0
  5  6  1  0  0  0  0
  5  7  2  0  0  0  0
  6  8  1  0  0  0  0
  6 25  1  0  0  0  0
  6 26  1  0  0  0  0
  7 10  1  0  0  0  0
  7 11  1  0  0  0  0
  8 27  1  0  0  0  0
  8 28  1  0  0  0  0
  9 10  2  0  0  0  0
  9 12  1  0  0  0  0
 10 30  1  0  0  0  0
 12 13  2  0  0  0  0
 12 14  1  0  0  0  0
 13 15  1  0  0  0  0
 13 32  1  0  0  0  0
 14 16  2  0  0  0  0
 14 33  1  0  0  0  0
 15 17  1  0  0  0  0
 16 34  1  0  0  0  0
 17 18  2  3  0  0  0
 17 35  1  0  0  0  0
 18 19  1  0  0  0  0
 18 36  1  0  0  0  0
 19 20  2  0  0  0  0
 19 21  1  0  0  0  0
 20 22  1  0  0  0  0
 20 37  1  0  0  0  0
 21 23  2  0  0  0  0
 21 38  1  0  0  0  0
 22 24  2  0  0  0  0
 22 39  1  0  0  0  0
 23 24  1  0  0  0  0
 23 40  1  0  0  0  0
 24 41  1  0  0  0  0
M  END
> <PUBCHEM_COMPOUND_CID>
49830880

> <PUBCHEM_COMPOUND_CANONICALIZED>
1

> <PUBCHEM_CACTVS_COMPLEXITY>
472

> <PUBCHEM_CACTVS_HBOND_ACCEPTOR>
2

> <PUBCHEM_CACTVS_HBOND_DONOR>
2

> <PUBCHEM_CACTVS_ROTATABLE_BOND>
3

> <PUBCHEM_CACTVS_SUBSKEYS>
AAADceB7IAAAAAAAAAAAAAAAAAAAAWAAAAA8WIAAAAAAAFgB8AAAHgAQAAAADAjBngQ8gJLJkACoAzV3VACCgCA1AiAI2aE4ZNgIIPrA1ZGEIYhglgDIycccicCOAAAAAAAAAAAAAAAAAAAAAAAAAAAAAA==

> <PUBCHEM_IUPAC_OPENEYE_NAME>
2-(2-styryl-4-pyridyl)-1,5,6,7-tetrahydropyrrolo[3,2-c]pyridin-4-one

> <PUBCHEM_IUPAC_CAS_NAME>
2-[2-(2-phenylethenyl)-4-pyridinyl]-1,5,6,7-tetrahydropyrrolo[3,2-c]pyridin-4-one

> <PUBCHEM_IUPAC_NAME_MARKUP>
2-[2-(2-phenylethenyl)pyridin-4-yl]-1,5,6,7-tetrahydropyrrolo[3,2-c]pyridin-4-one

> <PUBCHEM_IUPAC_NAME>
2-[2-(2-phenylethenyl)pyridin-4-yl]-1,5,6,7-tetrahydropyrrolo[3,2-c]pyridin-4-one

> <PUBCHEM_IUPAC_SYSTEMATIC_NAME>
2-[2-(2-phenylethenyl)pyridin-4-yl]-1,5,6,7-tetrahydropyrrolo[3,2-c]pyridin-4-one

> <PUBCHEM_IUPAC_TRADITIONAL_NAME>
2-(2-styryl-4-pyridyl)-1,5,6,7-tetrahydropyrrolo[3,2-c]pyridin-4-one

> <PUBCHEM_IUPAC_INCHI>
InChI=1S/C20H17N3O/c24-20-17-13-19(23-18(17)9-11-22-20)15-8-10-21-16(12-15)7-6-14-4-2-1-3-5-14/h1-8,10,12-13,23H,9,11H2,(H,22,24)

> <PUBCHEM_IUPAC_INCHIKEY>
RJZDECGDCKOHBV-UHFFFAOYSA-N

> <PUBCHEM_XLOGP3_AA>
3

> <PUBCHEM_EXACT_MASS>
315.137162174

> <PUBCHEM_MOLECULAR_FORMULA>
C20H17N3O

> <PUBCHEM_MOLECULAR_WEIGHT>
315.4

> <PUBCHEM_SMILES>
C1CNC(=O)C2=C1NC(=C2)C3=CC(=NC=C3)C=CC4=CC=CC=C4

> <PUBCHEM_OPENEYE_CAN_SMILES>
C1CNC(=O)C2=C1NC(=C2)C3=CC(=NC=C3)C=CC4=CC=CC=C4

> <PUBCHEM_OPENEYE_ISO_SMILES>
C1CNC(=O)C2=C1NC(=C2)C3=CC(=NC=C3)C=CC4=CC=CC=C4

> <PUBCHEM_CACTVS_TPSA>
57.8

> <PUBCHEM_MONOISOTOPIC_WEIGHT>
315.137162174

> <PUBCHEM_TOTAL_CHARGE>
0

> <PUBCHEM_HEAVY_ATOM_COUNT>
24

> <PUBCHEM_ATOM_DEF_STEREO_COUNT>
0

> <PUBCHEM_ATOM_UDEF_STEREO_COUNT>
0

> <PUBCHEM_BOND_DEF_STEREO_COUNT>
0

> <PUBCHEM_BOND_UDEF_STEREO_COUNT>
1

> <PUBCHEM_ISOTOPIC_ATOM_COUNT>
0

> <PUBCHEM_COMPONENT_COUNT>
1

> <PUBCHEM_CACTVS_TAUTO_COUNT>
-1

> <PUBCHEM_COORDINATE_TYPE>
1
5
255

> <PUBCHEM_BONDANNOTATIONS>
12  13  8
12  14  8
13  15  8
14  16  8
17  18  1
19  20  8
19  21  8
2  5  8
2  9  8
20  22  8
21  23  8
22  24  8
23  24  8
4  15  8
4  16  8
5  7  8
7  10  8
9  10  8

$$$$
