2132479
  -OEChem-03202504582D

 39 41  0     0  0  0  0  0  0999 V2000
    2.8660    1.0000    0.0000 O   0  0  0  0  0  0  0  0  0  0  0  0
    5.4641   -0.5000    0.0000 N   0  0  0  0  0  0  0  0  0  0  0  0
    5.4641    3.5000    0.0000 N   0  0  0  0  0  0  0  0  0  0  0  0
    3.7320   -2.5000    0.0000 N   0  0  0  0  0  0  0  0  0  0  0  0
    5.4641    0.5000    0.0000 C   0  0  0  0  0  0  0  0  0  0  0  0
    4.5981   -1.0000    0.0000 C   0  0  0  0  0  0  0  0  0  0  0  0
    4.5981    1.0000    0.0000 C   0  0  0  0  0  0  0  0  0  0  0  0
    3.7320   -0.5000    0.0000 C   0  0  0  0  0  0  0  0  0  0  0  0
    3.7320    0.5000    0.0000 C   0  0  0  0  0  0  0  0  0  0  0  0
    6.3301   -1.0000    0.0000 C   0  0  0  0  0  0  0  0  0  0  0  0
    4.5981    2.0000    0.0000 C   0  0  0  0  0  0  0  0  0  0  0  0
    2.8660   -1.0000    0.0000 C   0  0  0  0  0  0  0  0  0  0  0  0
    5.4641    2.5000    0.0000 C   0  0  0  0  0  0  0  0  0  0  0  0
    2.8660   -2.0000    0.0000 C   0  0  0  0  0  0  0  0  0  0  0  0
    6.3301    2.0000    0.0000 C   0  0  0  0  0  0  0  0  0  0  0  0
    2.0000   -2.5000    0.0000 C   0  0  0  0  0  0  0  0  0  0  0  0
    7.1962    2.5000    0.0000 C   0  0  0  0  0  0  0  0  0  0  0  0
    2.0000   -3.5000    0.0000 C   0  0  0  0  0  0  0  0  0  0  0  0
    6.3301    4.0000    0.0000 C   0  0  0  0  0  0  0  0  0  0  0  0
    3.7320   -3.5000    0.0000 C   0  0  0  0  0  0  0  0  0  0  0  0
    7.1962    3.5000    0.0000 C   0  0  0  0  0  0  0  0  0  0  0  0
    2.8660   -4.0000    0.0000 C   0  0  0  0  0  0  0  0  0  0  0  0
    6.0747    0.3923    0.0000 H   0  0  0  0  0  0  0  0  0  0  0  0
    5.6762    1.0826    0.0000 H   0  0  0  0  0  0  0  0  0  0  0  0
    4.1996   -1.4750    0.0000 H   0  0  0  0  0  0  0  0  0  0  0  0
    4.9966   -1.4750    0.0000 H   0  0  0  0  0  0  0  0  0  0  0  0
    6.0201   -1.5369    0.0000 H   0  0  0  0  0  0  0  0  0  0  0  0
    6.8671   -1.3100    0.0000 H   0  0  0  0  0  0  0  0  0  0  0  0
    6.6401   -0.4631    0.0000 H   0  0  0  0  0  0  0  0  0  0  0  0
    4.0611    2.3100    0.0000 H   0  0  0  0  0  0  0  0  0  0  0  0
    2.3291   -0.6900    0.0000 H   0  0  0  0  0  0  0  0  0  0  0  0
    6.3301    1.3800    0.0000 H   0  0  0  0  0  0  0  0  0  0  0  0
    1.4631   -2.1900    0.0000 H   0  0  0  0  0  0  0  0  0  0  0  0
    7.7331    2.1900    0.0000 H   0  0  0  0  0  0  0  0  0  0  0  0
    1.4631   -3.8100    0.0000 H   0  0  0  0  0  0  0  0  0  0  0  0
    6.3301    4.6200    0.0000 H   0  0  0  0  0  0  0  0  0  0  0  0
    4.2690   -3.8100    0.0000 H   0  0  0  0  0  0  0  0  0  0  0  0
    7.7331    3.8100    0.0000 H   0  0  0  0  0  0  0  0  0  0  0  0
    2.8660   -4.6200    0.0000 H   0  0  0  0  0  0  0  0  0  0  0  0
  1  9  2  0  0  0  0
  2  5  1  0  0  0  0
  2  6  1  0  0  0  0
  2 10  1  0  0  0  0
  3 13  1  0  0  0  0
  3 19  2  0  0  0  0
  4 14  1  0  0  0  0
  4 20  2  0  0  0  0
  5  7  1  0  0  0  0
  5 23  1  0  0  0  0
  5 24  1  0  0  0  0
  6  8  1  0  0  0  0
  6 25  1  0  0  0  0
  6 26  1  0  0  0  0
  7  9  1  0  0  0  0
  7 11  2  0  0  0  0
  8  9  1  0  0  0  0
  8 12  2  0  0  0  0
 10 27  1  0  0  0  0
 10 28  1  0  0  0  0
 10 29  1  0  0  0  0
 11 13  1  0  0  0  0
 11 30  1  0  0  0  0
 12 14  1  0  0  0  0
 12 31  1  0  0  0  0
 13 15  2  0  0  0  0
 14 16  2  0  0  0  0
 15 17  1  0  0  0  0
 15 32  1  0  0  0  0
 16 18  1  0  0  0  0
 16 33  1  0  0  0  0
 17 21  2  0  0  0  0
 17 34  1  0  0  0  0
 18 22  2  0  0  0  0
 18 35  1  0  0  0  0
 19 21  1  0  0  0  0
 19 36  1  0  0  0  0
 20 22  1  0  0  0  0
 20 37  1  0  0  0  0
 21 38  1  0  0  0  0
 22 39  1  0  0  0  0
M  END
> <PUBCHEM_COMPOUND_CID>
2132479

> <PUBCHEM_COMPOUND_CANONICALIZED>
1

> <PUBCHEM_CACTVS_COMPLEXITY>
429

> <PUBCHEM_CACTVS_HBOND_ACCEPTOR>
4

> <PUBCHEM_CACTVS_HBOND_DONOR>
0

> <PUBCHEM_CACTVS_ROTATABLE_BOND>
2

> <PUBCHEM_CACTVS_SUBSKEYS>
AAADceB7IAAAAAAAAAAAAAAAAAAAAAAAAAAsWLAAAAAAAAAB4AAAHgAAAAAADAzBlgQ+gJMIEACoA7R3RACCgCAxAiAI2CE4ZNgIIOrAkZGEIAhggADIyYcQAAAAAAAAAAAAAAAAAAAAAAAAAAAAAAAAAA==

> <PUBCHEM_IUPAC_OPENEYE_NAME>
(3E,5E)-1-methyl-3,5-bis(2-pyridylmethylene)piperidin-4-one

> <PUBCHEM_IUPAC_CAS_NAME>
(3E,5E)-1-methyl-3,5-bis(2-pyridinylmethylidene)-4-piperidinone

> <PUBCHEM_IUPAC_NAME_MARKUP>
(3<I>E</I>,5<I>E</I>)-1-methyl-3,5-bis(pyridin-2-ylmethylidene)piperidin-4-one

> <PUBCHEM_IUPAC_NAME>
(3E,5E)-1-methyl-3,5-bis(pyridin-2-ylmethylidene)piperidin-4-one

> <PUBCHEM_IUPAC_SYSTEMATIC_NAME>
(3E,5E)-1-methyl-3,5-bis(pyridin-2-ylmethylidene)piperidin-4-one

> <PUBCHEM_IUPAC_TRADITIONAL_NAME>
(3E,5E)-1-methyl-3,5-bis(2-pyridylmethylene)-4-piperidone

> <PUBCHEM_IUPAC_INCHI>
InChI=1S/C18H17N3O/c1-21-12-14(10-16-6-2-4-8-19-16)18(22)15(13-21)11-17-7-3-5-9-20-17/h2-11H,12-13H2,1H3/b14-10+,15-11+

> <PUBCHEM_IUPAC_INCHIKEY>
VCLPNFMJSSBBKX-WFYKWJGLSA-N

> <PUBCHEM_XLOGP3_AA>
1.6

> <PUBCHEM_EXACT_MASS>
291.137162174

> <PUBCHEM_MOLECULAR_FORMULA>
C18H17N3O

> <PUBCHEM_MOLECULAR_WEIGHT>
291.3

> <PUBCHEM_SMILES>
CN1C/C(=C\C2=CC=CC=N2)/C(=O)/C(=C/C3=CC=CC=N3)/C1

> <PUBCHEM_OPENEYE_CAN_SMILES>
CN1CC(=CC2=CC=CC=N2)C(=O)C(=CC3=CC=CC=N3)C1

> <PUBCHEM_OPENEYE_ISO_SMILES>
CN1C/C(=C\C2=CC=CC=N2)/C(=O)/C(=C/C3=CC=CC=N3)/C1

> <PUBCHEM_CACTVS_TPSA>
46.1

> <PUBCHEM_MONOISOTOPIC_WEIGHT>
291.137162174

> <PUBCHEM_TOTAL_CHARGE>
0

> <PUBCHEM_HEAVY_ATOM_COUNT>
22

> <PUBCHEM_ATOM_DEF_STEREO_COUNT>
0

> <PUBCHEM_ATOM_UDEF_STEREO_COUNT>
0

> <PUBCHEM_BOND_DEF_STEREO_COUNT>
2

> <PUBCHEM_BOND_UDEF_STEREO_COUNT>
0

> <PUBCHEM_ISOTOPIC_ATOM_COUNT>
0

> <PUBCHEM_COMPONENT_COUNT>
1

> <PUBCHEM_CACTVS_TAUTO_COUNT>
-1

> <PUBCHEM_COORDINATE_TYPE>
1
5
255

> <PUBCHEM_BONDANNOTATIONS>
13  15  8
14  16  8
15  17  8
16  18  8
17  21  8
18  22  8
19  21  8
20  22  8
3  13  8
3  19  8
4  14  8
4  20  8

$$$$
