135469328
  -OEChem-03202507312D

 28 30  0     0  0  0  0  0  0999 V2000
    2.0000    0.5463    0.0000 O   0  0  0  0  0  0  0  0  0  0  0  0
    2.0000   -1.4537    0.0000 O   0  0  0  0  0  0  0  0  0  0  0  0
    5.4920   -1.4884    0.0000 N   0  0  0  0  0  0  0  0  0  0  0  0
    8.9904    1.5771    0.0000 N   0  0  0  0  0  0  0  0  0  0  0  0
    4.5981    0.0463    0.0000 C   0  0  0  0  0  0  0  0  0  0  0  0
    6.3981    0.0671    0.0000 C   0  0  0  0  0  0  0  0  0  0  0  0
    4.5981   -0.9537    0.0000 C   0  0  0  0  0  0  0  0  0  0  0  0
    5.4920    0.5809    0.0000 C   0  0  0  0  0  0  0  0  0  0  0  0
    7.2622    0.5704    0.0000 C   0  0  0  0  0  0  0  0  0  0  0  0
    3.7320    0.5463    0.0000 C   0  0  0  0  0  0  0  0  0  0  0  0
    3.7320   -1.4537    0.0000 C   0  0  0  0  0  0  0  0  0  0  0  0
    6.3981   -0.9746    0.0000 C   0  0  0  0  0  0  0  0  0  0  0  0
    2.8660    0.0463    0.0000 C   0  0  0  0  0  0  0  0  0  0  0  0
    2.8660   -0.9537    0.0000 C   0  0  0  0  0  0  0  0  0  0  0  0
    8.1301    0.0738    0.0000 C   0  0  0  0  0  0  0  0  0  0  0  0
    7.2583    1.5704    0.0000 C   0  0  0  0  0  0  0  0  0  0  0  0
    8.9942    0.5771    0.0000 C   0  0  0  0  0  0  0  0  0  0  0  0
    8.1224    2.0737    0.0000 C   0  0  0  0  0  0  0  0  0  0  0  0
    5.4848    1.2009    0.0000 H   0  0  0  0  0  0  0  0  0  0  0  0
    3.7320    1.1663    0.0000 H   0  0  0  0  0  0  0  0  0  0  0  0
    3.7320   -2.0737    0.0000 H   0  0  0  0  0  0  0  0  0  0  0  0
    6.9338   -1.2866    0.0000 H   0  0  0  0  0  0  0  0  0  0  0  0
    8.1325   -0.5462    0.0000 H   0  0  0  0  0  0  0  0  0  0  0  0
    6.7202    1.8783    0.0000 H   0  0  0  0  0  0  0  0  0  0  0  0
    9.5323    0.2692    0.0000 H   0  0  0  0  0  0  0  0  0  0  0  0
    8.1200    2.6937    0.0000 H   0  0  0  0  0  0  0  0  0  0  0  0
    2.0000    1.1663    0.0000 H   0  0  0  0  0  0  0  0  0  0  0  0
    2.0000   -2.0737    0.0000 H   0  0  0  0  0  0  0  0  0  0  0  0
  1 13  1  0  0  0  0
  1 27  1  0  0  0  0
  2 14  1  0  0  0  0
  2 28  1  0  0  0  0
  3  7  2  0  0  0  0
  3 12  1  0  0  0  0
  4 17  2  0  0  0  0
  4 18  1  0  0  0  0
  5  7  1  0  0  0  0
  5  8  2  0  0  0  0
  5 10  1  0  0  0  0
  6  8  1  0  0  0  0
  6  9  1  0  0  0  0
  6 12  2  0  0  0  0
  7 11  1  0  0  0  0
  8 19  1  0  0  0  0
  9 15  2  0  0  0  0
  9 16  1  0  0  0  0
 10 13  2  0  0  0  0
 10 20  1  0  0  0  0
 11 14  2  0  0  0  0
 11 21  1  0  0  0  0
 12 22  1  0  0  0  0
 13 14  1  0  0  0  0
 15 17  1  0  0  0  0
 15 23  1  0  0  0  0
 16 18  2  0  0  0  0
 16 24  1  0  0  0  0
 17 25  1  0  0  0  0
 18 26  1  0  0  0  0
M  END
> <PUBCHEM_COMPOUND_CID>
135469328

> <PUBCHEM_COMPOUND_CANONICALIZED>
1

> <PUBCHEM_CACTVS_COMPLEXITY>
281

> <PUBCHEM_CACTVS_HBOND_ACCEPTOR>
4

> <PUBCHEM_CACTVS_HBOND_DONOR>
2

> <PUBCHEM_CACTVS_ROTATABLE_BOND>
1

> <PUBCHEM_CACTVS_SUBSKEYS>
AAADccBzMAAAAAAAAAAAAAAAAAAAAAAAAAA8WIAAAAAAAACx/AAAHgAACAAADAzBngQ8xvIIEgCgAzRnRACCgCAxIiAI2CA+7JgJJuLCkZOEcAlmwBnJ2Aew0PMOoEABAgACQABAgAIEAASAAAAAAAAAAA==

> <PUBCHEM_IUPAC_OPENEYE_NAME>
3-(4-pyridyl)quinoline-6,7-diol

> <PUBCHEM_IUPAC_CAS_NAME>
3-pyridin-4-ylquinoline-6,7-diol

> <PUBCHEM_IUPAC_NAME_MARKUP>
3-pyridin-4-ylquinoline-6,7-diol

> <PUBCHEM_IUPAC_NAME>
3-pyridin-4-ylquinoline-6,7-diol

> <PUBCHEM_IUPAC_SYSTEMATIC_NAME>
3-pyridin-4-ylquinoline-6,7-diol

> <PUBCHEM_IUPAC_TRADITIONAL_NAME>
3-(4-pyridyl)quinoline-6,7-diol

> <PUBCHEM_IUPAC_INCHI>
InChI=1S/C14H10N2O2/c17-13-6-10-5-11(9-1-3-15-4-2-9)8-16-12(10)7-14(13)18/h1-8,17-18H

> <PUBCHEM_IUPAC_INCHIKEY>
PWPSIWFFYVGDHO-UHFFFAOYSA-N

> <PUBCHEM_XLOGP3_AA>
2

> <PUBCHEM_EXACT_MASS>
238.074227566

> <PUBCHEM_MOLECULAR_FORMULA>
C14H10N2O2

> <PUBCHEM_MOLECULAR_WEIGHT>
238.24

> <PUBCHEM_SMILES>
C1=CN=CC=C1C2=CN=C3C=C(C(=CC3=C2)O)O

> <PUBCHEM_OPENEYE_CAN_SMILES>
C1=CN=CC=C1C2=CN=C3C=C(C(=CC3=C2)O)O

> <PUBCHEM_OPENEYE_ISO_SMILES>
C1=CN=CC=C1C2=CN=C3C=C(C(=CC3=C2)O)O

> <PUBCHEM_CACTVS_TPSA>
66.2

> <PUBCHEM_MONOISOTOPIC_WEIGHT>
238.074227566

> <PUBCHEM_TOTAL_CHARGE>
0

> <PUBCHEM_HEAVY_ATOM_COUNT>
18

> <PUBCHEM_ATOM_DEF_STEREO_COUNT>
0

> <PUBCHEM_ATOM_UDEF_STEREO_COUNT>
0

> <PUBCHEM_BOND_DEF_STEREO_COUNT>
0

> <PUBCHEM_BOND_UDEF_STEREO_COUNT>
0

> <PUBCHEM_ISOTOPIC_ATOM_COUNT>
0

> <PUBCHEM_COMPONENT_COUNT>
1

> <PUBCHEM_CACTVS_TAUTO_COUNT>
-1

> <PUBCHEM_COORDINATE_TYPE>
1
5
255

> <PUBCHEM_BONDANNOTATIONS>
10  13  8
11  14  8
13  14  8
15  17  8
16  18  8
3  12  8
3  7  8
4  17  8
4  18  8
5  10  8
5  7  8
5  8  8
6  12  8
6  8  8
7  11  8
9  15  8
9  16  8

$$$$
