49830702
  -OEChem-03202502212D

 34 35  0     0  0  0  0  0  0999 V2000
    6.3301   -2.4400    0.0000 Cl  0  0  0  0  0  0  0  0  0  0  0  0
    2.8660   -0.4400    0.0000 O   0  0  0  0  0  0  0  0  0  0  0  0
    6.3301    0.5600    0.0000 O   0  0  0  0  0  0  0  0  0  0  0  0
    3.7320   -3.9400    0.0000 O   0  0  0  0  0  0  0  0  0  0  0  0
    5.4641   -3.9400    0.0000 O   0  0  0  0  0  0  0  0  0  0  0  0
    4.5981    0.5600    0.0000 N   0  0  0  0  0  0  0  0  0  0  0  0
    5.4641    2.0600    0.0000 N   0  0  0  0  0  0  0  0  0  0  0  0
    6.3301    3.5600    0.0000 N   0  0  0  0  0  0  0  0  0  0  0  0
    8.0622    2.5600    0.0000 N   0  0  0  0  0  0  0  0  0  0  0  0
    9.7942    4.5600    0.0000 N   0  0  0  0  0  0  0  0  0  0  0  0
    4.5981   -0.4400    0.0000 C   0  0  0  0  0  0  0  0  0  0  0  0
    3.7320   -0.9400    0.0000 C   0  0  0  0  0  0  0  0  0  0  0  0
    4.5981   -2.4400    0.0000 C   0  0  0  0  0  0  0  0  0  0  0  0
    5.4641   -0.9400    0.0000 C   0  0  0  0  0  0  0  0  0  0  0  0
    3.7320   -1.9400    0.0000 C   0  0  0  0  0  0  0  0  0  0  0  0
    5.4641   -1.9400    0.0000 C   0  0  0  0  0  0  0  0  0  0  0  0
    5.4641    1.0600    0.0000 C   0  0  0  0  0  0  0  0  0  0  0  0
    4.5981   -3.4400    0.0000 C   0  0  0  0  0  0  0  0  0  0  0  0
    6.3301    2.5600    0.0000 C   0  0  0  0  0  0  0  0  0  0  0  0
    2.0000   -0.9400    0.0000 C   0  0  0  0  0  0  0  0  0  0  0  0
    7.1962    2.0600    0.0000 C   0  0  0  0  0  0  0  0  0  0  0  0
    7.1962    4.0600    0.0000 C   0  0  0  0  0  0  0  0  0  0  0  0
    8.0622    3.5600    0.0000 C   0  0  0  0  0  0  0  0  0  0  0  0
    8.9282    4.0600    0.0000 C   0  0  0  0  0  0  0  0  0  0  0  0
    6.0010   -0.6300    0.0000 H   0  0  0  0  0  0  0  0  0  0  0  0
    3.1951   -2.2500    0.0000 H   0  0  0  0  0  0  0  0  0  0  0  0
    4.0611    0.8700    0.0000 H   0  0  0  0  0  0  0  0  0  0  0  0
    4.9272    2.3700    0.0000 H   0  0  0  0  0  0  0  0  0  0  0  0
    1.6900   -0.4031    0.0000 H   0  0  0  0  0  0  0  0  0  0  0  0
    1.4631   -1.2500    0.0000 H   0  0  0  0  0  0  0  0  0  0  0  0
    2.3100   -1.4769    0.0000 H   0  0  0  0  0  0  0  0  0  0  0  0
    7.1962    1.4400    0.0000 H   0  0  0  0  0  0  0  0  0  0  0  0
    7.1962    4.6800    0.0000 H   0  0  0  0  0  0  0  0  0  0  0  0
    3.7320   -4.5600    0.0000 H   0  0  0  0  0  0  0  0  0  0  0  0
  1 16  1  0  0  0  0
  2 12  1  0  0  0  0
  2 20  1  0  0  0  0
  3 17  2  0  0  0  0
  4 18  1  0  0  0  0
  4 34  1  0  0  0  0
  5 18  2  0  0  0  0
  6 11  1  0  0  0  0
  6 17  1  0  0  0  0
  6 27  1  0  0  0  0
  7 17  1  0  0  0  0
  7 19  1  0  0  0  0
  7 28  1  0  0  0  0
  8 19  2  0  0  0  0
  8 22  1  0  0  0  0
  9 21  2  0  0  0  0
  9 23  1  0  0  0  0
 10 24  3  0  0  0  0
 11 12  2  0  0  0  0
 11 14  1  0  0  0  0
 12 15  1  0  0  0  0
 13 15  2  0  0  0  0
 13 16  1  0  0  0  0
 13 18  1  0  0  0  0
 14 16  2  0  0  0  0
 14 25  1  0  0  0  0
 15 26  1  0  0  0  0
 19 21  1  0  0  0  0
 20 29  1  0  0  0  0
 20 30  1  0  0  0  0
 20 31  1  0  0  0  0
 21 32  1  0  0  0  0
 22 23  2  0  0  0  0
 22 33  1  0  0  0  0
 23 24  1  0  0  0  0
M  END
> <PUBCHEM_COMPOUND_CID>
49830702

> <PUBCHEM_COMPOUND_CANONICALIZED>
1

> <PUBCHEM_CACTVS_COMPLEXITY>
525

> <PUBCHEM_CACTVS_HBOND_ACCEPTOR>
7

> <PUBCHEM_CACTVS_HBOND_DONOR>
3

> <PUBCHEM_CACTVS_ROTATABLE_BOND>
4

> <PUBCHEM_CACTVS_SUBSKEYS>
AAADccBzuAAEAAAAAAAAAAAAAAAAAAAAAAA8QAAAAAAAAAABwAAAHgIQCAAADA7BniY//pLIFgC4Bzb3fACiiC01NyAB2AE/fsiO5nLFtpuVcShs1RPY/afa2TOeCCABAAIBEAAQQAIABAIgAAAAAAAAAA==

> <PUBCHEM_IUPAC_OPENEYE_NAME>
2-chloro-4-[(5-cyanopyrazin-2-yl)carbamoylamino]-5-methoxy-benzoic acid

> <PUBCHEM_IUPAC_CAS_NAME>
2-chloro-4-[[[(5-cyano-2-pyrazinyl)amino]-oxomethyl]amino]-5-methoxybenzoic acid

> <PUBCHEM_IUPAC_NAME_MARKUP>
2-chloro-4-[(5-cyanopyrazin-2-yl)carbamoylamino]-5-methoxybenzoic acid

> <PUBCHEM_IUPAC_NAME>
2-chloro-4-[(5-cyanopyrazin-2-yl)carbamoylamino]-5-methoxybenzoic acid

> <PUBCHEM_IUPAC_SYSTEMATIC_NAME>
2-chloranyl-4-[(5-cyanopyrazin-2-yl)carbamoylamino]-5-methoxy-benzoic acid

> <PUBCHEM_IUPAC_TRADITIONAL_NAME>
2-chloro-4-[(5-cyanopyrazin-2-yl)carbamoylamino]-5-methoxy-benzoic acid

> <PUBCHEM_IUPAC_INCHI>
InChI=1S/C14H10ClN5O4/c1-24-11-2-8(13(21)22)9(15)3-10(11)19-14(23)20-12-6-17-7(4-16)5-18-12/h2-3,5-6H,1H3,(H,21,22)(H2,18,19,20,23)

> <PUBCHEM_IUPAC_INCHIKEY>
YBQVRQQJXBGPTB-UHFFFAOYSA-N

> <PUBCHEM_XLOGP3_AA>
0.9

> <PUBCHEM_EXACT_MASS>
347.0421315

> <PUBCHEM_MOLECULAR_FORMULA>
C14H10ClN5O4

> <PUBCHEM_MOLECULAR_WEIGHT>
347.71

> <PUBCHEM_SMILES>
COC1=C(C=C(C(=C1)C(=O)O)Cl)NC(=O)NC2=NC=C(N=C2)C#N

> <PUBCHEM_OPENEYE_CAN_SMILES>
COC1=C(C=C(C(=C1)C(=O)O)Cl)NC(=O)NC2=NC=C(N=C2)C#N

> <PUBCHEM_OPENEYE_ISO_SMILES>
COC1=C(C=C(C(=C1)C(=O)O)Cl)NC(=O)NC2=NC=C(N=C2)C#N

> <PUBCHEM_CACTVS_TPSA>
137

> <PUBCHEM_MONOISOTOPIC_WEIGHT>
347.0421315

> <PUBCHEM_TOTAL_CHARGE>
0

> <PUBCHEM_HEAVY_ATOM_COUNT>
24

> <PUBCHEM_ATOM_DEF_STEREO_COUNT>
0

> <PUBCHEM_ATOM_UDEF_STEREO_COUNT>
0

> <PUBCHEM_BOND_DEF_STEREO_COUNT>
0

> <PUBCHEM_BOND_UDEF_STEREO_COUNT>
0

> <PUBCHEM_ISOTOPIC_ATOM_COUNT>
0

> <PUBCHEM_COMPONENT_COUNT>
1

> <PUBCHEM_CACTVS_TAUTO_COUNT>
-1

> <PUBCHEM_COORDINATE_TYPE>
1
5
255

> <PUBCHEM_BONDANNOTATIONS>
11  12  8
11  14  8
12  15  8
13  15  8
13  16  8
14  16  8
19  21  8
22  23  8
8  19  8
8  22  8
9  21  8
9  23  8

$$$$
