23652669
  -OEChem-03202502252D

 58 61  0     0  0  0  0  0  0999 V2000
    4.7861   -1.6775    0.0000 S   0  0  0  0  0  0  0  0  0  0  0  0
   14.4170    3.8170    0.0000 O   0  0  0  0  0  0  0  0  0  0  0  0
   11.8189    1.3170    0.0000 N   0  0  0  0  0  0  0  0  0  0  0  0
   13.5509    2.3170    0.0000 N   0  0  0  0  0  0  0  0  0  0  0  0
    8.3548   -0.6830    0.0000 N   0  0  0  0  0  0  0  0  0  0  0  0
    6.6227   -0.6830    0.0000 N   0  0  0  0  0  0  0  0  0  0  0  0
    7.4888    0.8170    0.0000 N   0  0  0  0  0  0  0  0  0  0  0  0
    3.3080   -1.0194    0.0000 N   0  0  0  0  0  0  0  0  0  0  0  0
    3.4013   -2.7990    0.0000 N   0  0  0  0  0  0  0  0  0  0  0  0
   11.8189    2.3170    0.0000 C   0  0  0  0  0  0  0  0  0  0  0  0
   12.6849    0.8170    0.0000 C   0  0  0  0  0  0  0  0  0  0  0  0
   12.6849    2.8170    0.0000 C   0  0  0  0  0  0  0  0  0  0  0  0
   13.5509    1.3170    0.0000 C   0  0  0  0  0  0  0  0  0  0  0  0
   10.9528    0.8170    0.0000 C   0  0  0  0  0  0  0  0  0  0  0  0
   14.4170    2.8170    0.0000 C   0  0  0  0  0  0  0  0  0  0  0  0
   10.9528   -0.1830    0.0000 C   0  0  0  0  0  0  0  0  0  0  0  0
   10.0868    1.3170    0.0000 C   0  0  0  0  0  0  0  0  0  0  0  0
   15.2830    2.3170    0.0000 C   0  0  0  0  0  0  0  0  0  0  0  0
   10.0868   -0.6830    0.0000 C   0  0  0  0  0  0  0  0  0  0  0  0
    9.2208    0.8170    0.0000 C   0  0  0  0  0  0  0  0  0  0  0  0
    9.2208   -0.1830    0.0000 C   0  0  0  0  0  0  0  0  0  0  0  0
    7.4888   -0.1830    0.0000 C   0  0  0  0  0  0  0  0  0  0  0  0
    5.7567   -0.1830    0.0000 C   0  0  0  0  0  0  0  0  0  0  0  0
    4.8907   -0.6830    0.0000 C   0  0  0  0  0  0  0  0  0  0  0  0
    3.9771   -0.2762    0.0000 C   0  0  0  0  0  0  0  0  0  0  0  0
    5.7567    0.8170    0.0000 C   0  0  0  0  0  0  0  0  0  0  0  0
    3.8080   -1.8854    0.0000 C   0  0  0  0  0  0  0  0  0  0  0  0
    6.6227    1.3170    0.0000 C   0  0  0  0  0  0  0  0  0  0  0  0
    3.7692    0.7019    0.0000 C   0  0  0  0  0  0  0  0  0  0  0  0
    2.4067   -2.9035    0.0000 C   0  0  0  0  0  0  0  0  0  0  0  0
    2.0000   -3.8170    0.0000 C   0  0  0  0  0  0  0  0  0  0  0  0
   11.6068    2.8996    0.0000 H   0  0  0  0  0  0  0  0  0  0  0  0
   11.2083    2.2094    0.0000 H   0  0  0  0  0  0  0  0  0  0  0  0
   12.2864    0.3421    0.0000 H   0  0  0  0  0  0  0  0  0  0  0  0
   13.0834    0.3421    0.0000 H   0  0  0  0  0  0  0  0  0  0  0  0
   13.0834    3.2920    0.0000 H   0  0  0  0  0  0  0  0  0  0  0  0
   12.2864    3.2920    0.0000 H   0  0  0  0  0  0  0  0  0  0  0  0
   13.7630    0.7344    0.0000 H   0  0  0  0  0  0  0  0  0  0  0  0
   14.1615    1.4247    0.0000 H   0  0  0  0  0  0  0  0  0  0  0  0
   11.4898   -0.4930    0.0000 H   0  0  0  0  0  0  0  0  0  0  0  0
   10.0868    1.9370    0.0000 H   0  0  0  0  0  0  0  0  0  0  0  0
   14.9730    1.7801    0.0000 H   0  0  0  0  0  0  0  0  0  0  0  0
   15.8199    2.0070    0.0000 H   0  0  0  0  0  0  0  0  0  0  0  0
   15.5930    2.8540    0.0000 H   0  0  0  0  0  0  0  0  0  0  0  0
   10.0868   -1.3030    0.0000 H   0  0  0  0  0  0  0  0  0  0  0  0
    8.6839    1.1270    0.0000 H   0  0  0  0  0  0  0  0  0  0  0  0
    8.3548   -1.3030    0.0000 H   0  0  0  0  0  0  0  0  0  0  0  0
    5.2198    1.1270    0.0000 H   0  0  0  0  0  0  0  0  0  0  0  0
    6.6227    1.9370    0.0000 H   0  0  0  0  0  0  0  0  0  0  0  0
    3.7657   -3.3005    0.0000 H   0  0  0  0  0  0  0  0  0  0  0  0
    4.3757    0.8308    0.0000 H   0  0  0  0  0  0  0  0  0  0  0  0
    3.6403    1.3084    0.0000 H   0  0  0  0  0  0  0  0  0  0  0  0
    3.1628    0.5730    0.0000 H   0  0  0  0  0  0  0  0  0  0  0  0
    2.4500   -2.2850    0.0000 H   0  0  0  0  0  0  0  0  0  0  0  0
    1.8052   -2.7535    0.0000 H   0  0  0  0  0  0  0  0  0  0  0  0
    1.4336   -3.5648    0.0000 H   0  0  0  0  0  0  0  0  0  0  0  0
    1.7478   -4.3834    0.0000 H   0  0  0  0  0  0  0  0  0  0  0  0
    2.5664   -4.0692    0.0000 H   0  0  0  0  0  0  0  0  0  0  0  0
  1 24  1  0  0  0  0
  1 27  1  0  0  0  0
  2 15  2  0  0  0  0
  3 10  1  0  0  0  0
  3 11  1  0  0  0  0
  3 14  1  0  0  0  0
  4 12  1  0  0  0  0
  4 13  1  0  0  0  0
  4 15  1  0  0  0  0
  5 21  1  0  0  0  0
  5 22  1  0  0  0  0
  5 47  1  0  0  0  0
  6 22  1  0  0  0  0
  6 23  2  0  0  0  0
  7 22  2  0  0  0  0
  7 28  1  0  0  0  0
  8 25  1  0  0  0  0
  8 27  2  0  0  0  0
  9 27  1  0  0  0  0
  9 30  1  0  0  0  0
  9 50  1  0  0  0  0
 10 12  1  0  0  0  0
 10 32  1  0  0  0  0
 10 33  1  0  0  0  0
 11 13  1  0  0  0  0
 11 34  1  0  0  0  0
 11 35  1  0  0  0  0
 12 36  1  0  0  0  0
 12 37  1  0  0  0  0
 13 38  1  0  0  0  0
 13 39  1  0  0  0  0
 14 16  2  0  0  0  0
 14 17  1  0  0  0  0
 15 18  1  0  0  0  0
 16 19  1  0  0  0  0
 16 40  1  0  0  0  0
 17 20  2  0  0  0  0
 17 41  1  0  0  0  0
 18 42  1  0  0  0  0
 18 43  1  0  0  0  0
 18 44  1  0  0  0  0
 19 21  2  0  0  0  0
 19 45  1  0  0  0  0
 20 21  1  0  0  0  0
 20 46  1  0  0  0  0
 23 24  1  0  0  0  0
 23 26  1  0  0  0  0
 24 25  2  0  0  0  0
 25 29  1  0  0  0  0
 26 28  2  0  0  0  0
 26 48  1  0  0  0  0
 28 49  1  0  0  0  0
 29 51  1  0  0  0  0
 29 52  1  0  0  0  0
 29 53  1  0  0  0  0
 30 31  1  0  0  0  0
 30 54  1  0  0  0  0
 30 55  1  0  0  0  0
 31 56  1  0  0  0  0
 31 57  1  0  0  0  0
 31 58  1  0  0  0  0
M  END
> <PUBCHEM_COMPOUND_CID>
23652669

> <PUBCHEM_COMPOUND_CANONICALIZED>
1

> <PUBCHEM_CACTVS_COMPLEXITY>
580

> <PUBCHEM_CACTVS_HBOND_ACCEPTOR>
8

> <PUBCHEM_CACTVS_HBOND_DONOR>
2

> <PUBCHEM_CACTVS_ROTATABLE_BOND>
6

> <PUBCHEM_CACTVS_SUBSKEYS>
AAADceB7oABAAAAAAAAAAAAAAAAAAWAAAAA8WIAAAAAAAAAB8AAAHgQQAAAACAjB1gQ/0ZfIEAisATV3dACC8KlxCrkJ2LQ4ZJiIaKLg2dGUJAholgLIyCcQAAAAAACAAAAAAAAAAQAAAAAAAAAAAAAAAA==

> <PUBCHEM_IUPAC_OPENEYE_NAME>
1-[4-[4-[[4-[2-(ethylamino)-4-methyl-thiazol-5-yl]pyrimidin-2-yl]amino]phenyl]piperazin-1-yl]ethanone

> <PUBCHEM_IUPAC_CAS_NAME>
1-[4-[4-[[4-[2-(ethylamino)-4-methyl-5-thiazolyl]-2-pyrimidinyl]amino]phenyl]-1-piperazinyl]ethanone

> <PUBCHEM_IUPAC_NAME_MARKUP>
1-[4-[4-[[4-[2-(ethylamino)-4-methyl-1,3-thiazol-5-yl]pyrimidin-2-yl]amino]phenyl]piperazin-1-yl]ethanone

> <PUBCHEM_IUPAC_NAME>
1-[4-[4-[[4-[2-(ethylamino)-4-methyl-1,3-thiazol-5-yl]pyrimidin-2-yl]amino]phenyl]piperazin-1-yl]ethanone

> <PUBCHEM_IUPAC_SYSTEMATIC_NAME>
1-[4-[4-[[4-[2-(ethylamino)-4-methyl-1,3-thiazol-5-yl]pyrimidin-2-yl]amino]phenyl]piperazin-1-yl]ethanone

> <PUBCHEM_IUPAC_TRADITIONAL_NAME>
1-[4-[4-[[4-[2-(ethylamino)-4-methyl-thiazol-5-yl]pyrimidin-2-yl]amino]phenyl]piperazino]ethanone

> <PUBCHEM_IUPAC_INCHI>
InChI=1S/C22H27N7OS/c1-4-23-22-25-15(2)20(31-22)19-9-10-24-21(27-19)26-17-5-7-18(8-6-17)29-13-11-28(12-14-29)16(3)30/h5-10H,4,11-14H2,1-3H3,(H,23,25)(H,24,26,27)

> <PUBCHEM_IUPAC_INCHIKEY>
RPMKNQKYFFKBAZ-UHFFFAOYSA-N

> <PUBCHEM_XLOGP3_AA>
3.3

> <PUBCHEM_EXACT_MASS>
437.19977968

> <PUBCHEM_MOLECULAR_FORMULA>
C22H27N7OS

> <PUBCHEM_MOLECULAR_WEIGHT>
437.6

> <PUBCHEM_SMILES>
CCNC1=NC(=C(S1)C2=NC(=NC=C2)NC3=CC=C(C=C3)N4CCN(CC4)C(=O)C)C

> <PUBCHEM_OPENEYE_CAN_SMILES>
CCNC1=NC(=C(S1)C2=NC(=NC=C2)NC3=CC=C(C=C3)N4CCN(CC4)C(=O)C)C

> <PUBCHEM_OPENEYE_ISO_SMILES>
CCNC1=NC(=C(S1)C2=NC(=NC=C2)NC3=CC=C(C=C3)N4CCN(CC4)C(=O)C)C

> <PUBCHEM_CACTVS_TPSA>
115

> <PUBCHEM_MONOISOTOPIC_WEIGHT>
437.19977968

> <PUBCHEM_TOTAL_CHARGE>
0

> <PUBCHEM_HEAVY_ATOM_COUNT>
31

> <PUBCHEM_ATOM_DEF_STEREO_COUNT>
0

> <PUBCHEM_ATOM_UDEF_STEREO_COUNT>
0

> <PUBCHEM_BOND_DEF_STEREO_COUNT>
0

> <PUBCHEM_BOND_UDEF_STEREO_COUNT>
0

> <PUBCHEM_ISOTOPIC_ATOM_COUNT>
0

> <PUBCHEM_COMPONENT_COUNT>
1

> <PUBCHEM_CACTVS_TAUTO_COUNT>
-1

> <PUBCHEM_COORDINATE_TYPE>
1
5
255

> <PUBCHEM_BONDANNOTATIONS>
1  24  8
1  27  8
14  16  8
14  17  8
16  19  8
17  20  8
19  21  8
20  21  8
23  26  8
24  25  8
26  28  8
6  22  8
6  23  8
7  22  8
7  28  8
8  25  8
8  27  8

$$$$
