24905293
  -OEChem-03192523492D

 36 38  0     0  0  0  0  0  0999 V2000
    5.9209    2.9120    0.0000 O   0  0  0  0  0  0  0  0  0  0  0  0
    7.2566    1.4234    0.0000 O   0  0  0  0  0  0  0  0  0  0  0  0
    4.6783   -2.4996    0.0000 N   0  0  0  0  0  0  0  0  0  0  0  0
    5.2619   -1.6948    0.0000 N   0  0  0  0  0  0  0  0  0  0  0  0
    2.8660   -2.6948    0.0000 N   0  0  0  0  0  0  0  0  0  0  0  0
    2.0000   -1.1948    0.0000 N   0  0  0  0  0  0  0  0  0  0  0  0
    2.8660    0.3052    0.0000 N   0  0  0  0  0  0  0  0  0  0  0  0
    3.7320   -1.1948    0.0000 C   0  0  0  0  0  0  0  0  0  0  0  0
    4.6783   -0.8901    0.0000 C   0  0  0  0  0  0  0  0  0  0  0  0
    3.7320   -2.1948    0.0000 C   0  0  0  0  0  0  0  0  0  0  0  0
    4.9889    0.0604    0.0000 C   0  0  0  0  0  0  0  0  0  0  0  0
    4.9889   -3.4501    0.0000 C   0  0  0  0  0  0  0  0  0  0  0  0
    2.8660   -0.6948    0.0000 C   0  0  0  0  0  0  0  0  0  0  0  0
    5.9674    0.2666    0.0000 C   0  0  0  0  0  0  0  0  0  0  0  0
    4.3211    0.8047    0.0000 C   0  0  0  0  0  0  0  0  0  0  0  0
    5.9674   -3.6563    0.0000 C   0  0  0  0  0  0  0  0  0  0  0  0
    6.2781    1.2172    0.0000 C   0  0  0  0  0  0  0  0  0  0  0  0
    4.6318    1.7552    0.0000 C   0  0  0  0  0  0  0  0  0  0  0  0
    5.6103    1.9615    0.0000 C   0  0  0  0  0  0  0  0  0  0  0  0
    2.0000   -2.1948    0.0000 C   0  0  0  0  0  0  0  0  0  0  0  0
    5.2531    3.6563    0.0000 C   0  0  0  0  0  0  0  0  0  0  0  0
    4.3751   -3.5374    0.0000 H   0  0  0  0  0  0  0  0  0  0  0  0
    4.9684   -4.0697    0.0000 H   0  0  0  0  0  0  0  0  0  0  0  0
    6.3815   -0.1948    0.0000 H   0  0  0  0  0  0  0  0  0  0  0  0
    3.7144    0.6769    0.0000 H   0  0  0  0  0  0  0  0  0  0  0  0
    5.8396   -4.2630    0.0000 H   0  0  0  0  0  0  0  0  0  0  0  0
    6.5741   -3.7842    0.0000 H   0  0  0  0  0  0  0  0  0  0  0  0
    6.0953   -3.0496    0.0000 H   0  0  0  0  0  0  0  0  0  0  0  0
    4.2177    2.2167    0.0000 H   0  0  0  0  0  0  0  0  0  0  0  0
    1.4631   -2.5048    0.0000 H   0  0  0  0  0  0  0  0  0  0  0  0
    2.3291    0.6152    0.0000 H   0  0  0  0  0  0  0  0  0  0  0  0
    3.4030    0.6152    0.0000 H   0  0  0  0  0  0  0  0  0  0  0  0
    7.6707    0.9619    0.0000 H   0  0  0  0  0  0  0  0  0  0  0  0
    5.7145    4.0704    0.0000 H   0  0  0  0  0  0  0  0  0  0  0  0
    4.8390    4.1178    0.0000 H   0  0  0  0  0  0  0  0  0  0  0  0
    4.7916    3.2422    0.0000 H   0  0  0  0  0  0  0  0  0  0  0  0
  1 19  1  0  0  0  0
  1 21  1  0  0  0  0
  2 17  1  0  0  0  0
  2 33  1  0  0  0  0
  3  4  1  0  0  0  0
  3 10  1  0  0  0  0
  3 12  1  0  0  0  0
  4  9  2  0  0  0  0
  5 10  2  0  0  0  0
  5 20  1  0  0  0  0
  6 13  1  0  0  0  0
  6 20  2  0  0  0  0
  7 13  1  0  0  0  0
  7 31  1  0  0  0  0
  7 32  1  0  0  0  0
  8  9  1  0  0  0  0
  8 10  1  0  0  0  0
  8 13  2  0  0  0  0
  9 11  1  0  0  0  0
 11 14  2  0  0  0  0
 11 15  1  0  0  0  0
 12 16  1  0  0  0  0
 12 22  1  0  0  0  0
 12 23  1  0  0  0  0
 14 17  1  0  0  0  0
 14 24  1  0  0  0  0
 15 18  2  0  0  0  0
 15 25  1  0  0  0  0
 16 26  1  0  0  0  0
 16 27  1  0  0  0  0
 16 28  1  0  0  0  0
 17 19  2  0  0  0  0
 18 19  1  0  0  0  0
 18 29  1  0  0  0  0
 20 30  1  0  0  0  0
 21 34  1  0  0  0  0
 21 35  1  0  0  0  0
 21 36  1  0  0  0  0
M  END
> <PUBCHEM_COMPOUND_CID>
24905293

> <PUBCHEM_COMPOUND_CANONICALIZED>
1

> <PUBCHEM_CACTVS_COMPLEXITY>
358

> <PUBCHEM_CACTVS_HBOND_ACCEPTOR>
6

> <PUBCHEM_CACTVS_HBOND_DONOR>
2

> <PUBCHEM_CACTVS_ROTATABLE_BOND>
3

> <PUBCHEM_CACTVS_SUBSKEYS>
AAADccBzsAAAAAAAAAAAAAAAAAAAAWAAAAA8QAAAAAAAAFgB/AAAHgAYCAAADAzBnwY3tt5IFgCiAyZjZACSjCsxoKAd2CAuzJiNLqLG+duE9CtsyBPL+Cew0PEOIAABAAAAQABAAAIAAACAAAAAAAAAAA==

> <PUBCHEM_IUPAC_OPENEYE_NAME>
5-(4-amino-1-ethyl-pyrazolo[3,4-d]pyrimidin-3-yl)-2-methoxy-phenol

> <PUBCHEM_IUPAC_CAS_NAME>
5-(4-amino-1-ethyl-3-pyrazolo[3,4-d]pyrimidinyl)-2-methoxyphenol

> <PUBCHEM_IUPAC_NAME_MARKUP>
5-(4-amino-1-ethylpyrazolo[3,4-d]pyrimidin-3-yl)-2-methoxyphenol

> <PUBCHEM_IUPAC_NAME>
5-(4-amino-1-ethylpyrazolo[3,4-d]pyrimidin-3-yl)-2-methoxyphenol

> <PUBCHEM_IUPAC_SYSTEMATIC_NAME>
5-(4-azanyl-1-ethyl-pyrazolo[3,4-d]pyrimidin-3-yl)-2-methoxy-phenol

> <PUBCHEM_IUPAC_TRADITIONAL_NAME>
5-(4-amino-1-ethyl-pyrazolo[3,4-d]pyrimidin-3-yl)-2-methoxy-phenol

> <PUBCHEM_IUPAC_INCHI>
InChI=1S/C14H15N5O2/c1-3-19-14-11(13(15)16-7-17-14)12(18-19)8-4-5-10(21-2)9(20)6-8/h4-7,20H,3H2,1-2H3,(H2,15,16,17)

> <PUBCHEM_IUPAC_INCHIKEY>
QOYOSSAKTDDRJV-UHFFFAOYSA-N

> <PUBCHEM_XLOGP3_AA>
1.4

> <PUBCHEM_EXACT_MASS>
285.12257474

> <PUBCHEM_MOLECULAR_FORMULA>
C14H15N5O2

> <PUBCHEM_MOLECULAR_WEIGHT>
285.30

> <PUBCHEM_SMILES>
CCN1C2=NC=NC(=C2C(=N1)C3=CC(=C(C=C3)OC)O)N

> <PUBCHEM_OPENEYE_CAN_SMILES>
CCN1C2=NC=NC(=C2C(=N1)C3=CC(=C(C=C3)OC)O)N

> <PUBCHEM_OPENEYE_ISO_SMILES>
CCN1C2=NC=NC(=C2C(=N1)C3=CC(=C(C=C3)OC)O)N

> <PUBCHEM_CACTVS_TPSA>
99.1

> <PUBCHEM_MONOISOTOPIC_WEIGHT>
285.12257474

> <PUBCHEM_TOTAL_CHARGE>
0

> <PUBCHEM_HEAVY_ATOM_COUNT>
21

> <PUBCHEM_ATOM_DEF_STEREO_COUNT>
0

> <PUBCHEM_ATOM_UDEF_STEREO_COUNT>
0

> <PUBCHEM_BOND_DEF_STEREO_COUNT>
0

> <PUBCHEM_BOND_UDEF_STEREO_COUNT>
0

> <PUBCHEM_ISOTOPIC_ATOM_COUNT>
0

> <PUBCHEM_COMPONENT_COUNT>
1

> <PUBCHEM_CACTVS_TAUTO_COUNT>
-1

> <PUBCHEM_COORDINATE_TYPE>
1
5
255

> <PUBCHEM_BONDANNOTATIONS>
11  14  8
11  15  8
14  17  8
15  18  8
17  19  8
18  19  8
3  10  8
3  4  8
4  9  8
5  10  8
5  20  8
6  13  8
6  20  8
8  10  8
8  13  8
8  9  8

$$$$
