49830781
  -OEChem-03202503132D

 61 64  0     0  0  0  0  0  0999 V2000
    4.5981    0.9050    0.0000 S   0  0  0  0  0  0  0  0  0  0  0  0
    6.3301   -5.0950    0.0000 S   0  0  0  0  0  0  0  0  0  0  0  0
    5.4641    9.4050    0.0000 F   0  0  0  0  0  0  0  0  0  0  0  0
    5.5981    0.9050    0.0000 O   0  0  0  0  0  0  0  0  0  0  0  0
    3.5981    0.9050    0.0000 O   0  0  0  0  0  0  0  0  0  0  0  0
    6.3301    1.9050    0.0000 O   0  0  0  0  0  0  0  0  0  0  0  0
    2.0000   -1.5950    0.0000 O   0  5  0  0  0  0  0  0  0  0  0  0
    2.8660   -3.0950    0.0000 O   0  0  0  0  0  0  0  0  0  0  0  0
    6.3301   -9.0950    0.0000 O   0  0  0  0  0  0  0  0  0  0  0  0
    4.5981   -3.0950    0.0000 N   0  0  0  0  0  0  0  0  0  0  0  0
    4.5981    1.9050    0.0000 N   0  0  0  0  0  0  0  0  0  0  0  0
    2.8660   -2.0950    0.0000 N   0  3  0  0  0  0  0  0  0  0  0  0
    4.5981   -0.0950    0.0000 C   0  0  0  0  0  0  0  0  0  0  0  0
    4.5981   -2.0950    0.0000 C   0  0  0  0  0  0  0  0  0  0  0  0
    3.7320   -1.5950    0.0000 C   0  0  0  0  0  0  0  0  0  0  0  0
    3.7320   -0.5950    0.0000 C   0  0  0  0  0  0  0  0  0  0  0  0
    5.4641   -0.5950    0.0000 C   0  0  0  0  0  0  0  0  0  0  0  0
    5.4641   -1.5950    0.0000 C   0  0  0  0  0  0  0  0  0  0  0  0
    5.4641   -3.5950    0.0000 C   0  0  0  0  0  0  0  0  0  0  0  0
    5.4641   -4.5950    0.0000 C   0  0  0  0  0  0  0  0  0  0  0  0
    5.4641    3.4050    0.0000 C   0  0  0  0  0  0  0  0  0  0  0  0
    5.4641    2.4050    0.0000 C   0  0  0  0  0  0  0  0  0  0  0  0
    5.4641    5.4050    0.0000 C   0  0  0  0  0  0  0  0  0  0  0  0
    6.3301    3.9050    0.0000 C   0  0  0  0  0  0  0  0  0  0  0  0
    4.5981    3.9050    0.0000 C   0  0  0  0  0  0  0  0  0  0  0  0
    5.4641    6.4050    0.0000 C   0  0  0  0  0  0  0  0  0  0  0  0
    6.3301    4.9050    0.0000 C   0  0  0  0  0  0  0  0  0  0  0  0
    4.5981    4.9050    0.0000 C   0  0  0  0  0  0  0  0  0  0  0  0
    4.5981    6.9050    0.0000 C   0  0  0  0  0  0  0  0  0  0  0  0
    6.3301    6.9050    0.0000 C   0  0  0  0  0  0  0  0  0  0  0  0
    6.3301   -6.0950    0.0000 C   0  0  0  0  0  0  0  0  0  0  0  0
    4.5981    7.9050    0.0000 C   0  0  0  0  0  0  0  0  0  0  0  0
    6.3301    7.9050    0.0000 C   0  0  0  0  0  0  0  0  0  0  0  0
    5.4641    8.4050    0.0000 C   0  0  0  0  0  0  0  0  0  0  0  0
    5.4641   -6.5950    0.0000 C   0  0  0  0  0  0  0  0  0  0  0  0
    7.1962   -6.5950    0.0000 C   0  0  0  0  0  0  0  0  0  0  0  0
    5.4641   -7.5950    0.0000 C   0  0  0  0  0  0  0  0  0  0  0  0
    7.1962   -7.5950    0.0000 C   0  0  0  0  0  0  0  0  0  0  0  0
    6.3301   -8.0950    0.0000 C   0  0  0  0  0  0  0  0  0  0  0  0
    3.1951   -0.2850    0.0000 H   0  0  0  0  0  0  0  0  0  0  0  0
    6.0010   -0.2850    0.0000 H   0  0  0  0  0  0  0  0  0  0  0  0
    6.0010   -1.9050    0.0000 H   0  0  0  0  0  0  0  0  0  0  0  0
    6.0747   -3.7027    0.0000 H   0  0  0  0  0  0  0  0  0  0  0  0
    5.6762   -3.0124    0.0000 H   0  0  0  0  0  0  0  0  0  0  0  0
    4.0611   -3.4050    0.0000 H   0  0  0  0  0  0  0  0  0  0  0  0
    4.0611    2.2150    0.0000 H   0  0  0  0  0  0  0  0  0  0  0  0
    4.8535   -4.4873    0.0000 H   0  0  0  0  0  0  0  0  0  0  0  0
    5.2520   -5.1776    0.0000 H   0  0  0  0  0  0  0  0  0  0  0  0
    6.8671    3.5950    0.0000 H   0  0  0  0  0  0  0  0  0  0  0  0
    4.0611    3.5950    0.0000 H   0  0  0  0  0  0  0  0  0  0  0  0
    6.8671    5.2150    0.0000 H   0  0  0  0  0  0  0  0  0  0  0  0
    4.0611    5.2150    0.0000 H   0  0  0  0  0  0  0  0  0  0  0  0
    4.0611    6.5950    0.0000 H   0  0  0  0  0  0  0  0  0  0  0  0
    6.8671    6.5950    0.0000 H   0  0  0  0  0  0  0  0  0  0  0  0
    4.0611    8.2150    0.0000 H   0  0  0  0  0  0  0  0  0  0  0  0
    6.8671    8.2150    0.0000 H   0  0  0  0  0  0  0  0  0  0  0  0
    4.9272   -6.2850    0.0000 H   0  0  0  0  0  0  0  0  0  0  0  0
    7.7331   -6.2850    0.0000 H   0  0  0  0  0  0  0  0  0  0  0  0
    4.9272   -7.9050    0.0000 H   0  0  0  0  0  0  0  0  0  0  0  0
    7.7331   -7.9050    0.0000 H   0  0  0  0  0  0  0  0  0  0  0  0
    6.8671   -9.4050    0.0000 H   0  0  0  0  0  0  0  0  0  0  0  0
  1  4  2  0  0  0  0
  1  5  2  0  0  0  0
  1 11  1  0  0  0  0
  1 13  1  0  0  0  0
  2 20  1  0  0  0  0
  2 31  1  0  0  0  0
  3 34  1  0  0  0  0
  6 22  2  0  0  0  0
  7 12  1  0  0  0  0
  8 12  2  0  0  0  0
  9 39  1  0  0  0  0
  9 61  1  0  0  0  0
 10 14  1  0  0  0  0
 10 19  1  0  0  0  0
 10 45  1  0  0  0  0
 11 22  1  0  0  0  0
 11 46  1  0  0  0  0
 12 15  1  0  0  0  0
 13 16  2  0  0  0  0
 13 17  1  0  0  0  0
 14 15  2  0  0  0  0
 14 18  1  0  0  0  0
 15 16  1  0  0  0  0
 16 40  1  0  0  0  0
 17 18  2  0  0  0  0
 17 41  1  0  0  0  0
 18 42  1  0  0  0  0
 19 20  1  0  0  0  0
 19 43  1  0  0  0  0
 19 44  1  0  0  0  0
 20 47  1  0  0  0  0
 20 48  1  0  0  0  0
 21 22  1  0  0  0  0
 21 24  2  0  0  0  0
 21 25  1  0  0  0  0
 23 26  1  0  0  0  0
 23 27  2  0  0  0  0
 23 28  1  0  0  0  0
 24 27  1  0  0  0  0
 24 49  1  0  0  0  0
 25 28  2  0  0  0  0
 25 50  1  0  0  0  0
 26 29  2  0  0  0  0
 26 30  1  0  0  0  0
 27 51  1  0  0  0  0
 28 52  1  0  0  0  0
 29 32  1  0  0  0  0
 29 53  1  0  0  0  0
 30 33  2  0  0  0  0
 30 54  1  0  0  0  0
 31 35  2  0  0  0  0
 31 36  1  0  0  0  0
 32 34  2  0  0  0  0
 32 55  1  0  0  0  0
 33 34  1  0  0  0  0
 33 56  1  0  0  0  0
 35 37  1  0  0  0  0
 35 57  1  0  0  0  0
 36 38  2  0  0  0  0
 36 58  1  0  0  0  0
 37 39  2  0  0  0  0
 37 59  1  0  0  0  0
 38 39  1  0  0  0  0
 38 60  1  0  0  0  0
M  CHG  2   7  -1  12   1
M  END
> <PUBCHEM_COMPOUND_CID>
49830781

> <PUBCHEM_COMPOUND_CANONICALIZED>
1

> <PUBCHEM_CACTVS_COMPLEXITY>
905

> <PUBCHEM_CACTVS_HBOND_ACCEPTOR>
9

> <PUBCHEM_CACTVS_HBOND_DONOR>
3

> <PUBCHEM_CACTVS_ROTATABLE_BOND>
9

> <PUBCHEM_CACTVS_SUBSKEYS>
AAADceB7OQBgAAAAAAAAAAAAAAAAAAAAAAAwYMGAAAAAAAABVAAAHwQUSAAADAzF2Aywx4LQQgqJAiVSU3DCABAlKhAoiJkOfMoIZjLilZOUcQxk0JHo2YeYyMCOwIQAACAAACCBCAAAQAAAQAAAAAAAAA==

> <PUBCHEM_IUPAC_OPENEYE_NAME>
4-(4-fluorophenyl)-N-[4-[2-(4-hydroxyphenyl)sulfanylethylamino]-3-nitro-phenyl]sulfonyl-benzamide

> <PUBCHEM_IUPAC_CAS_NAME>
4-(4-fluorophenyl)-N-[4-[2-[(4-hydroxyphenyl)thio]ethylamino]-3-nitrophenyl]sulfonylbenzamide

> <PUBCHEM_IUPAC_NAME_MARKUP>
4-(4-fluorophenyl)-<I>N</I>-[4-[2-(4-hydroxyphenyl)sulfanylethylamino]-3-nitrophenyl]sulfonylbenzamide

> <PUBCHEM_IUPAC_NAME>
4-(4-fluorophenyl)-N-[4-[2-(4-hydroxyphenyl)sulfanylethylamino]-3-nitrophenyl]sulfonylbenzamide

> <PUBCHEM_IUPAC_SYSTEMATIC_NAME>
4-(4-fluorophenyl)-N-[4-[2-(4-hydroxyphenyl)sulfanylethylamino]-3-nitro-phenyl]sulfonyl-benzamide

> <PUBCHEM_IUPAC_TRADITIONAL_NAME>
4-(4-fluorophenyl)-N-[4-[2-[(4-hydroxyphenyl)thio]ethylamino]-3-nitro-phenyl]sulfonyl-benzamide

> <PUBCHEM_IUPAC_INCHI>
InChI=1S/C27H22FN3O6S2/c28-21-7-5-19(6-8-21)18-1-3-20(4-2-18)27(33)30-39(36,37)24-13-14-25(26(17-24)31(34)35)29-15-16-38-23-11-9-22(32)10-12-23/h1-14,17,29,32H,15-16H2,(H,30,33)

> <PUBCHEM_IUPAC_INCHIKEY>
ZQJVVICZLBJUTJ-UHFFFAOYSA-N

> <PUBCHEM_XLOGP3_AA>
6.3

> <PUBCHEM_EXACT_MASS>
567.09340594

> <PUBCHEM_MOLECULAR_FORMULA>
C27H22FN3O6S2

> <PUBCHEM_MOLECULAR_WEIGHT>
567.6

> <PUBCHEM_SMILES>
C1=CC(=CC=C1C2=CC=C(C=C2)F)C(=O)NS(=O)(=O)C3=CC(=C(C=C3)NCCSC4=CC=C(C=C4)O)[N+](=O)[O-]

> <PUBCHEM_OPENEYE_CAN_SMILES>
C1=CC(=CC=C1C2=CC=C(C=C2)F)C(=O)NS(=O)(=O)C3=CC(=C(C=C3)NCCSC4=CC=C(C=C4)O)[N+](=O)[O-]

> <PUBCHEM_OPENEYE_ISO_SMILES>
C1=CC(=CC=C1C2=CC=C(C=C2)F)C(=O)NS(=O)(=O)C3=CC(=C(C=C3)NCCSC4=CC=C(C=C4)O)[N+](=O)[O-]

> <PUBCHEM_CACTVS_TPSA>
175

> <PUBCHEM_MONOISOTOPIC_WEIGHT>
567.09340594

> <PUBCHEM_TOTAL_CHARGE>
0

> <PUBCHEM_HEAVY_ATOM_COUNT>
39

> <PUBCHEM_ATOM_DEF_STEREO_COUNT>
0

> <PUBCHEM_ATOM_UDEF_STEREO_COUNT>
0

> <PUBCHEM_BOND_DEF_STEREO_COUNT>
0

> <PUBCHEM_BOND_UDEF_STEREO_COUNT>
0

> <PUBCHEM_ISOTOPIC_ATOM_COUNT>
0

> <PUBCHEM_COMPONENT_COUNT>
1

> <PUBCHEM_CACTVS_TAUTO_COUNT>
-1

> <PUBCHEM_COORDINATE_TYPE>
1
5
255

> <PUBCHEM_BONDANNOTATIONS>
13  16  8
13  17  8
14  15  8
14  18  8
15  16  8
17  18  8
21  24  8
21  25  8
23  27  8
23  28  8
24  27  8
25  28  8
26  29  8
26  30  8
29  32  8
30  33  8
31  35  8
31  36  8
32  34  8
33  34  8
35  37  8
36  38  8
37  39  8
38  39  8

$$$$
