5328135
  -OEChem-03202506272D

 71 73  0     0  0  0  0  0  0999 V2000
    5.7320    2.9330    0.0000 Cl  0  0  0  0  0  0  0  0  0  0  0  0
    2.7320    1.2010    0.0000 Cl  0  0  0  0  0  0  0  0  0  0  0  0
    4.7320   -1.7990    0.0000 O   0  0  0  0  0  0  0  0  0  0  0  0
   13.4602    0.1601    0.0000 N   0  0  0  0  0  0  0  0  0  0  0  0
    3.0000   -1.7990    0.0000 N   0  0  0  0  0  0  0  0  0  0  0  0
    9.1282   -0.3232    0.0000 N   0  0  0  0  0  0  0  0  0  0  0  0
    3.8660   -0.2990    0.0000 N   0  0  0  0  0  0  0  0  0  0  0  0
    7.3580   -0.3337    0.0000 N   0  0  0  0  0  0  0  0  0  0  0  0
    5.5981   -0.2990    0.0000 N   0  0  0  0  0  0  0  0  0  0  0  0
    8.2641    1.2218    0.0000 N   0  0  0  0  0  0  0  0  0  0  0  0
   12.5923   -0.3365    0.0000 C   0  0  0  0  0  0  0  0  0  0  0  0
   11.7282    0.1668    0.0000 C   0  0  0  0  0  0  0  0  0  0  0  0
   10.8602   -0.3299    0.0000 C   0  0  0  0  0  0  0  0  0  0  0  0
   14.3243   -0.3432    0.0000 C   0  0  0  0  0  0  0  0  0  0  0  0
   13.4641    1.1601    0.0000 C   0  0  0  0  0  0  0  0  0  0  0  0
    3.0000   -2.7990    0.0000 C   0  0  0  0  0  0  0  0  0  0  0  0
    9.9962    0.1735    0.0000 C   0  0  0  0  0  0  0  0  0  0  0  0
    3.0000   -3.7990    0.0000 C   0  0  0  0  0  0  0  0  0  0  0  0
    2.0000   -2.7990    0.0000 C   0  0  0  0  0  0  0  0  0  0  0  0
    4.0000   -2.7990    0.0000 C   0  0  0  0  0  0  0  0  0  0  0  0
   15.1923    0.1534    0.0000 C   0  0  0  0  0  0  0  0  0  0  0  0
   14.3320    1.6568    0.0000 C   0  0  0  0  0  0  0  0  0  0  0  0
    8.2641    0.1801    0.0000 C   0  0  0  0  0  0  0  0  0  0  0  0
    3.8660   -1.2990    0.0000 C   0  0  0  0  0  0  0  0  0  0  0  0
    4.7320    1.2010    0.0000 C   0  0  0  0  0  0  0  0  0  0  0  0
    4.7320    0.2010    0.0000 C   0  0  0  0  0  0  0  0  0  0  0  0
    6.4641    1.2010    0.0000 C   0  0  0  0  0  0  0  0  0  0  0  0
    6.4641    0.2010    0.0000 C   0  0  0  0  0  0  0  0  0  0  0  0
    5.5981    1.7010    0.0000 C   0  0  0  0  0  0  0  0  0  0  0  0
    4.2320    2.0670    0.0000 C   0  0  0  0  0  0  0  0  0  0  0  0
    7.3580    1.7356    0.0000 C   0  0  0  0  0  0  0  0  0  0  0  0
    4.7320    2.9330    0.0000 C   0  0  0  0  0  0  0  0  0  0  0  0
    3.2321    2.0671    0.0000 C   0  0  0  0  0  0  0  0  0  0  0  0
    4.2320    3.7990    0.0000 C   0  0  0  0  0  0  0  0  0  0  0  0
    2.7320    2.9330    0.0000 C   0  0  0  0  0  0  0  0  0  0  0  0
    3.2320    3.7990    0.0000 C   0  0  0  0  0  0  0  0  0  0  0  0
   12.1919   -0.8099    0.0000 H   0  0  0  0  0  0  0  0  0  0  0  0
   12.9890   -0.8130    0.0000 H   0  0  0  0  0  0  0  0  0  0  0  0
   12.1285    0.6402    0.0000 H   0  0  0  0  0  0  0  0  0  0  0  0
   11.3315    0.6433    0.0000 H   0  0  0  0  0  0  0  0  0  0  0  0
   10.4599   -0.8033    0.0000 H   0  0  0  0  0  0  0  0  0  0  0  0
   11.2569   -0.8063    0.0000 H   0  0  0  0  0  0  0  0  0  0  0  0
   13.9240   -0.8166    0.0000 H   0  0  0  0  0  0  0  0  0  0  0  0
   14.7210   -0.8197    0.0000 H   0  0  0  0  0  0  0  0  0  0  0  0
   13.2543    1.7435    0.0000 H   0  0  0  0  0  0  0  0  0  0  0  0
   12.8531    1.0548    0.0000 H   0  0  0  0  0  0  0  0  0  0  0  0
   10.3965    0.6469    0.0000 H   0  0  0  0  0  0  0  0  0  0  0  0
    9.5994    0.6500    0.0000 H   0  0  0  0  0  0  0  0  0  0  0  0
    2.3800   -3.7990    0.0000 H   0  0  0  0  0  0  0  0  0  0  0  0
    3.0000   -4.4190    0.0000 H   0  0  0  0  0  0  0  0  0  0  0  0
    3.6200   -3.7990    0.0000 H   0  0  0  0  0  0  0  0  0  0  0  0
    2.0000   -2.1790    0.0000 H   0  0  0  0  0  0  0  0  0  0  0  0
    1.3800   -2.7990    0.0000 H   0  0  0  0  0  0  0  0  0  0  0  0
    2.0000   -3.4190    0.0000 H   0  0  0  0  0  0  0  0  0  0  0  0
    4.0000   -3.4190    0.0000 H   0  0  0  0  0  0  0  0  0  0  0  0
    4.6200   -2.7990    0.0000 H   0  0  0  0  0  0  0  0  0  0  0  0
    4.0000   -2.1790    0.0000 H   0  0  0  0  0  0  0  0  0  0  0  0
   15.5002   -0.3847    0.0000 H   0  0  0  0  0  0  0  0  0  0  0  0
   15.7304    0.4614    0.0000 H   0  0  0  0  0  0  0  0  0  0  0  0
   14.8843    0.6916    0.0000 H   0  0  0  0  0  0  0  0  0  0  0  0
   14.6400    1.1186    0.0000 H   0  0  0  0  0  0  0  0  0  0  0  0
   14.8702    1.9647    0.0000 H   0  0  0  0  0  0  0  0  0  0  0  0
   14.0241    2.1949    0.0000 H   0  0  0  0  0  0  0  0  0  0  0  0
    2.4631   -1.4890    0.0000 H   0  0  0  0  0  0  0  0  0  0  0  0
    9.1258   -0.9432    0.0000 H   0  0  0  0  0  0  0  0  0  0  0  0
    3.3291    0.0110    0.0000 H   0  0  0  0  0  0  0  0  0  0  0  0
    5.5981    2.3210    0.0000 H   0  0  0  0  0  0  0  0  0  0  0  0
    7.3509    2.3556    0.0000 H   0  0  0  0  0  0  0  0  0  0  0  0
    4.5420    4.3360    0.0000 H   0  0  0  0  0  0  0  0  0  0  0  0
    2.1120    2.9330    0.0000 H   0  0  0  0  0  0  0  0  0  0  0  0
    2.9220    4.3360    0.0000 H   0  0  0  0  0  0  0  0  0  0  0  0
  1 32  1  0  0  0  0
  2 33  1  0  0  0  0
  3 24  2  0  0  0  0
  4 11  1  0  0  0  0
  4 14  1  0  0  0  0
  4 15  1  0  0  0  0
  5 16  1  0  0  0  0
  5 24  1  0  0  0  0
  5 64  1  0  0  0  0
  6 17  1  0  0  0  0
  6 23  1  0  0  0  0
  6 65  1  0  0  0  0
  7 24  1  0  0  0  0
  7 26  1  0  0  0  0
  7 66  1  0  0  0  0
  8 23  2  0  0  0  0
  8 28  1  0  0  0  0
  9 26  1  0  0  0  0
  9 28  2  0  0  0  0
 10 23  1  0  0  0  0
 10 31  2  0  0  0  0
 11 12  1  0  0  0  0
 11 37  1  0  0  0  0
 11 38  1  0  0  0  0
 12 13  1  0  0  0  0
 12 39  1  0  0  0  0
 12 40  1  0  0  0  0
 13 17  1  0  0  0  0
 13 41  1  0  0  0  0
 13 42  1  0  0  0  0
 14 21  1  0  0  0  0
 14 43  1  0  0  0  0
 14 44  1  0  0  0  0
 15 22  1  0  0  0  0
 15 45  1  0  0  0  0
 15 46  1  0  0  0  0
 16 18  1  0  0  0  0
 16 19  1  0  0  0  0
 16 20  1  0  0  0  0
 17 47  1  0  0  0  0
 17 48  1  0  0  0  0
 18 49  1  0  0  0  0
 18 50  1  0  0  0  0
 18 51  1  0  0  0  0
 19 52  1  0  0  0  0
 19 53  1  0  0  0  0
 19 54  1  0  0  0  0
 20 55  1  0  0  0  0
 20 56  1  0  0  0  0
 20 57  1  0  0  0  0
 21 58  1  0  0  0  0
 21 59  1  0  0  0  0
 21 60  1  0  0  0  0
 22 61  1  0  0  0  0
 22 62  1  0  0  0  0
 22 63  1  0  0  0  0
 25 26  2  0  0  0  0
 25 29  1  0  0  0  0
 25 30  1  0  0  0  0
 27 28  1  0  0  0  0
 27 29  2  0  0  0  0
 27 31  1  0  0  0  0
 29 67  1  0  0  0  0
 30 32  2  0  0  0  0
 30 33  1  0  0  0  0
 31 68  1  0  0  0  0
 32 34  1  0  0  0  0
 33 35  2  0  0  0  0
 34 36  2  0  0  0  0
 34 69  1  0  0  0  0
 35 36  1  0  0  0  0
 35 70  1  0  0  0  0
 36 71  1  0  0  0  0
M  END
> <PUBCHEM_COMPOUND_CID>
5328135

> <PUBCHEM_COMPOUND_CANONICALIZED>
1

> <PUBCHEM_CACTVS_COMPLEXITY>
665

> <PUBCHEM_CACTVS_HBOND_ACCEPTOR>
6

> <PUBCHEM_CACTVS_HBOND_DONOR>
3

> <PUBCHEM_CACTVS_ROTATABLE_BOND>
11

> <PUBCHEM_CACTVS_SUBSKEYS>
AAADcfB7oAAGAAAAAAAAAAAAAAAAAAAAAAA8WIAAAAAAAACx/AAAHgIQAAAADIrBGyQ/sN/IEACoAjJndACCgCkxBaAJ2KAoRpiIKOLB29GEJAholQLIyCcQgMAOgAAAAACBAAAAAAAAAQIAAAAAAAAAAA==

> <PUBCHEM_IUPAC_OPENEYE_NAME>
1-tert-butyl-3-[6-(2,6-dichlorophenyl)-2-[4-(diethylamino)butylamino]pyrido[2,3-d]pyrimidin-7-yl]urea

> <PUBCHEM_IUPAC_CAS_NAME>
1-tert-butyl-3-[6-(2,6-dichlorophenyl)-2-[4-(diethylamino)butylamino]-7-pyrido[2,3-d]pyrimidinyl]urea

> <PUBCHEM_IUPAC_NAME_MARKUP>
1-<I>tert</I>-butyl-3-[6-(2,6-dichlorophenyl)-2-[4-(diethylamino)butylamino]pyrido[2,3-d]pyrimidin-7-yl]urea

> <PUBCHEM_IUPAC_NAME>
1-tert-butyl-3-[6-(2,6-dichlorophenyl)-2-[4-(diethylamino)butylamino]pyrido[2,3-d]pyrimidin-7-yl]urea

> <PUBCHEM_IUPAC_SYSTEMATIC_NAME>
1-[6-[2,6-bis(chloranyl)phenyl]-2-[4-(diethylamino)butylamino]pyrido[2,3-d]pyrimidin-7-yl]-3-tert-butyl-urea

> <PUBCHEM_IUPAC_TRADITIONAL_NAME>
1-tert-butyl-3-[6-(2,6-dichlorophenyl)-2-[4-(diethylamino)butylamino]pyrido[2,3-d]pyrimidin-7-yl]urea

> <PUBCHEM_IUPAC_INCHI>
InChI=1S/C26H35Cl2N7O/c1-6-35(7-2)14-9-8-13-29-24-30-16-17-15-18(21-19(27)11-10-12-20(21)28)23(31-22(17)32-24)33-25(36)34-26(3,4)5/h10-12,15-16H,6-9,13-14H2,1-5H3,(H3,29,30,31,32,33,34,36)

> <PUBCHEM_IUPAC_INCHIKEY>
MKVMEJKNLUWFSQ-UHFFFAOYSA-N

> <PUBCHEM_XLOGP3_AA>
5.8

> <PUBCHEM_EXACT_MASS>
531.2280142

> <PUBCHEM_MOLECULAR_FORMULA>
C26H35Cl2N7O

> <PUBCHEM_MOLECULAR_WEIGHT>
532.5

> <PUBCHEM_SMILES>
CCN(CC)CCCCNC1=NC2=NC(=C(C=C2C=N1)C3=C(C=CC=C3Cl)Cl)NC(=O)NC(C)(C)C

> <PUBCHEM_OPENEYE_CAN_SMILES>
CCN(CC)CCCCNC1=NC2=NC(=C(C=C2C=N1)C3=C(C=CC=C3Cl)Cl)NC(=O)NC(C)(C)C

> <PUBCHEM_OPENEYE_ISO_SMILES>
CCN(CC)CCCCNC1=NC2=NC(=C(C=C2C=N1)C3=C(C=CC=C3Cl)Cl)NC(=O)NC(C)(C)C

> <PUBCHEM_CACTVS_TPSA>
95.1

> <PUBCHEM_MONOISOTOPIC_WEIGHT>
531.2280142

> <PUBCHEM_TOTAL_CHARGE>
0

> <PUBCHEM_HEAVY_ATOM_COUNT>
36

> <PUBCHEM_ATOM_DEF_STEREO_COUNT>
0

> <PUBCHEM_ATOM_UDEF_STEREO_COUNT>
0

> <PUBCHEM_BOND_DEF_STEREO_COUNT>
0

> <PUBCHEM_BOND_UDEF_STEREO_COUNT>
0

> <PUBCHEM_ISOTOPIC_ATOM_COUNT>
0

> <PUBCHEM_COMPONENT_COUNT>
1

> <PUBCHEM_CACTVS_TAUTO_COUNT>
-1

> <PUBCHEM_COORDINATE_TYPE>
1
5
255

> <PUBCHEM_BONDANNOTATIONS>
10  23  8
10  31  8
25  26  8
25  29  8
27  28  8
27  29  8
27  31  8
30  32  8
30  33  8
32  34  8
33  35  8
34  36  8
35  36  8
8  23  8
8  28  8
9  26  8
9  28  8

$$$$
