49830655
  -OEChem-03202502012D

 71 74  0     0  0  0  0  0  0999 V2000
    5.5717    1.2148    0.0000 O   0  0  0  0  0  0  0  0  0  0  0  0
    9.0635   -1.5218    0.0000 O   0  0  0  0  0  0  0  0  0  0  0  0
   12.2440   -3.2202    0.0000 O   0  0  0  0  0  0  0  0  0  0  0  0
   14.6813   -4.2494    0.0000 O   0  0  0  0  0  0  0  0  0  0  0  0
    5.4672   -1.7797    0.0000 N   0  0  0  0  0  0  0  0  0  0  0  0
    4.4890   -1.9876    0.0000 N   0  0  0  0  0  0  0  0  0  0  0  0
    6.4378   -0.2852    0.0000 N   0  0  0  0  0  0  0  0  0  0  0  0
    7.3038    1.2148    0.0000 N   0  0  0  0  0  0  0  0  0  0  0  0
    9.5987   -3.1691    0.0000 N   0  0  0  0  0  0  0  0  0  0  0  0
    2.9945   -1.0171    0.0000 C   0  0  0  0  0  0  0  0  0  0  0  0
    3.9890   -1.1216    0.0000 C   0  0  0  0  0  0  0  0  0  0  0  0
    2.0000   -0.9126    0.0000 C   0  0  0  0  0  0  0  0  0  0  0  0
    2.8900   -2.0116    0.0000 C   0  0  0  0  0  0  0  0  0  0  0  0
    3.0990   -0.0226    0.0000 C   0  0  0  0  0  0  0  0  0  0  0  0
    4.6582   -0.3785    0.0000 C   0  0  0  0  0  0  0  0  0  0  0  0
    5.5717   -0.7852    0.0000 C   0  0  0  0  0  0  0  0  0  0  0  0
    6.2103   -2.4489    0.0000 C   0  0  0  0  0  0  0  0  0  0  0  0
    7.1614   -2.1399    0.0000 C   0  0  0  0  0  0  0  0  0  0  0  0
    6.0024   -3.4270    0.0000 C   0  0  0  0  0  0  0  0  0  0  0  0
    7.9045   -2.8090    0.0000 C   0  0  0  0  0  0  0  0  0  0  0  0
    6.4378    0.7148    0.0000 C   0  0  0  0  0  0  0  0  0  0  0  0
    6.7456   -4.0962    0.0000 C   0  0  0  0  0  0  0  0  0  0  0  0
    7.6966   -3.7871    0.0000 C   0  0  0  0  0  0  0  0  0  0  0  0
    7.3038    2.2148    0.0000 C   0  0  0  0  0  0  0  0  0  0  0  0
    8.1698    2.7148    0.0000 C   0  0  0  0  0  0  0  0  0  0  0  0
    8.8556   -2.5000    0.0000 C   0  0  0  0  0  0  0  0  0  0  0  0
    8.1698    3.7148    0.0000 C   0  0  0  0  0  0  0  0  0  0  0  0
    6.4378    2.7148    0.0000 C   0  0  0  0  0  0  0  0  0  0  0  0
   10.5498   -2.8601    0.0000 C   0  0  0  0  0  0  0  0  0  0  0  0
    9.0637    2.1801    0.0000 C   0  0  0  0  0  0  0  0  0  0  0  0
    7.3038    4.2148    0.0000 C   0  0  0  0  0  0  0  0  0  0  0  0
    6.4378    3.7148    0.0000 C   0  0  0  0  0  0  0  0  0  0  0  0
    9.0637    4.2494    0.0000 C   0  0  0  0  0  0  0  0  0  0  0  0
   11.2929   -3.5292    0.0000 C   0  0  0  0  0  0  0  0  0  0  0  0
    9.9698    2.6940    0.0000 C   0  0  0  0  0  0  0  0  0  0  0  0
    9.9698    3.7356    0.0000 C   0  0  0  0  0  0  0  0  0  0  0  0
   12.9871   -3.8893    0.0000 C   0  0  0  0  0  0  0  0  0  0  0  0
   13.9382   -3.5803    0.0000 C   0  0  0  0  0  0  0  0  0  0  0  0
    2.0648   -0.2960    0.0000 H   0  0  0  0  0  0  0  0  0  0  0  0
    1.3834   -0.8478    0.0000 H   0  0  0  0  0  0  0  0  0  0  0  0
    1.9352   -1.5292    0.0000 H   0  0  0  0  0  0  0  0  0  0  0  0
    2.2734   -1.9468    0.0000 H   0  0  0  0  0  0  0  0  0  0  0  0
    2.8252   -2.6282    0.0000 H   0  0  0  0  0  0  0  0  0  0  0  0
    3.5066   -2.0764    0.0000 H   0  0  0  0  0  0  0  0  0  0  0  0
    3.7156   -0.0874    0.0000 H   0  0  0  0  0  0  0  0  0  0  0  0
    3.1639    0.5940    0.0000 H   0  0  0  0  0  0  0  0  0  0  0  0
    2.4824    0.0422    0.0000 H   0  0  0  0  0  0  0  0  0  0  0  0
    4.5293    0.2280    0.0000 H   0  0  0  0  0  0  0  0  0  0  0  0
    6.9747   -0.5952    0.0000 H   0  0  0  0  0  0  0  0  0  0  0  0
    7.2903   -1.5334    0.0000 H   0  0  0  0  0  0  0  0  0  0  0  0
    5.4128   -3.6186    0.0000 H   0  0  0  0  0  0  0  0  0  0  0  0
    6.6167   -4.7026    0.0000 H   0  0  0  0  0  0  0  0  0  0  0  0
    8.1574   -4.2020    0.0000 H   0  0  0  0  0  0  0  0  0  0  0  0
    7.8407    0.9048    0.0000 H   0  0  0  0  0  0  0  0  0  0  0  0
    5.9008    2.4048    0.0000 H   0  0  0  0  0  0  0  0  0  0  0  0
    9.4698   -3.7756    0.0000 H   0  0  0  0  0  0  0  0  0  0  0  0
   11.0384   -2.4784    0.0000 H   0  0  0  0  0  0  0  0  0  0  0  0
   10.2587   -2.3127    0.0000 H   0  0  0  0  0  0  0  0  0  0  0  0
    9.0566    1.5602    0.0000 H   0  0  0  0  0  0  0  0  0  0  0  0
    7.3038    4.8348    0.0000 H   0  0  0  0  0  0  0  0  0  0  0  0
    5.9008    4.0248    0.0000 H   0  0  0  0  0  0  0  0  0  0  0  0
    9.0566    4.8694    0.0000 H   0  0  0  0  0  0  0  0  0  0  0  0
   10.8044   -3.9109    0.0000 H   0  0  0  0  0  0  0  0  0  0  0  0
   11.5840   -4.0766    0.0000 H   0  0  0  0  0  0  0  0  0  0  0  0
   10.5055    2.3819    0.0000 H   0  0  0  0  0  0  0  0  0  0  0  0
   10.5055    4.0477    0.0000 H   0  0  0  0  0  0  0  0  0  0  0  0
   12.4986   -4.2710    0.0000 H   0  0  0  0  0  0  0  0  0  0  0  0
   13.2782   -4.4368    0.0000 H   0  0  0  0  0  0  0  0  0  0  0  0
   14.4268   -3.1986    0.0000 H   0  0  0  0  0  0  0  0  0  0  0  0
   13.6471   -3.0329    0.0000 H   0  0  0  0  0  0  0  0  0  0  0  0
   15.2710   -4.0578    0.0000 H   0  0  0  0  0  0  0  0  0  0  0  0
  1 21  2  0  0  0  0
  2 26  2  0  0  0  0
  3 34  1  0  0  0  0
  3 37  1  0  0  0  0
  4 38  1  0  0  0  0
  4 71  1  0  0  0  0
  5  6  1  0  0  0  0
  5 16  1  0  0  0  0
  5 17  1  0  0  0  0
  6 11  2  0  0  0  0
  7 16  1  0  0  0  0
  7 21  1  0  0  0  0
  7 49  1  0  0  0  0
  8 21  1  0  0  0  0
  8 24  1  0  0  0  0
  8 54  1  0  0  0  0
  9 26  1  0  0  0  0
  9 29  1  0  0  0  0
  9 56  1  0  0  0  0
 10 11  1  0  0  0  0
 10 12  1  0  0  0  0
 10 13  1  0  0  0  0
 10 14  1  0  0  0  0
 11 15  1  0  0  0  0
 12 39  1  0  0  0  0
 12 40  1  0  0  0  0
 12 41  1  0  0  0  0
 13 42  1  0  0  0  0
 13 43  1  0  0  0  0
 13 44  1  0  0  0  0
 14 45  1  0  0  0  0
 14 46  1  0  0  0  0
 14 47  1  0  0  0  0
 15 16  2  0  0  0  0
 15 48  1  0  0  0  0
 17 18  1  0  0  0  0
 17 19  2  0  0  0  0
 18 20  2  0  0  0  0
 18 50  1  0  0  0  0
 19 22  1  0  0  0  0
 19 51  1  0  0  0  0
 20 23  1  0  0  0  0
 20 26  1  0  0  0  0
 22 23  2  0  0  0  0
 22 52  1  0  0  0  0
 23 53  1  0  0  0  0
 24 25  1  0  0  0  0
 24 28  2  0  0  0  0
 25 27  1  0  0  0  0
 25 30  2  0  0  0  0
 27 31  1  0  0  0  0
 27 33  2  0  0  0  0
 28 32  1  0  0  0  0
 28 55  1  0  0  0  0
 29 34  1  0  0  0  0
 29 57  1  0  0  0  0
 29 58  1  0  0  0  0
 30 35  1  0  0  0  0
 30 59  1  0  0  0  0
 31 32  2  0  0  0  0
 31 60  1  0  0  0  0
 32 61  1  0  0  0  0
 33 36  1  0  0  0  0
 33 62  1  0  0  0  0
 34 63  1  0  0  0  0
 34 64  1  0  0  0  0
 35 36  2  0  0  0  0
 35 65  1  0  0  0  0
 36 66  1  0  0  0  0
 37 38  1  0  0  0  0
 37 67  1  0  0  0  0
 37 68  1  0  0  0  0
 38 69  1  0  0  0  0
 38 70  1  0  0  0  0
M  END
> <PUBCHEM_COMPOUND_CID>
49830655

> <PUBCHEM_COMPOUND_CANONICALIZED>
1

> <PUBCHEM_CACTVS_COMPLEXITY>
775

> <PUBCHEM_CACTVS_HBOND_ACCEPTOR>
5

> <PUBCHEM_CACTVS_HBOND_DONOR>
4

> <PUBCHEM_CACTVS_ROTATABLE_BOND>
10

> <PUBCHEM_CACTVS_SUBSKEYS>
AAADcfB7uAAAAAAAAAAAAAAAAAAAAWAAAAAwYMAAAAAAAADB1AAAHgAYCAAADgjhngYz8NLIBgCqAydydACSBCMlAgAdmKE4ZNiLMHLA1dGHpQh4nwLbyacciICPgAAAQAASAAAAAACAACQAAAAAAAAAAA==

> <PUBCHEM_IUPAC_OPENEYE_NAME>
3-[3-tert-butyl-5-(1-naphthylcarbamoylamino)pyrazol-1-yl]-N-[2-(2-hydroxyethoxy)ethyl]benzamide

> <PUBCHEM_IUPAC_CAS_NAME>
3-[3-tert-butyl-5-[[(1-naphthalenylamino)-oxomethyl]amino]-1-pyrazolyl]-N-[2-(2-hydroxyethoxy)ethyl]benzamide

> <PUBCHEM_IUPAC_NAME_MARKUP>
3-[3-<I>tert</I>-butyl-5-(naphthalen-1-ylcarbamoylamino)pyrazol-1-yl]-<I>N</I>-[2-(2-hydroxyethoxy)ethyl]benzamide

> <PUBCHEM_IUPAC_NAME>
3-[3-tert-butyl-5-(naphthalen-1-ylcarbamoylamino)pyrazol-1-yl]-N-[2-(2-hydroxyethoxy)ethyl]benzamide

> <PUBCHEM_IUPAC_SYSTEMATIC_NAME>
3-[3-tert-butyl-5-(naphthalen-1-ylcarbamoylamino)pyrazol-1-yl]-N-[2-(2-hydroxyethyloxy)ethyl]benzamide

> <PUBCHEM_IUPAC_TRADITIONAL_NAME>
3-[3-tert-butyl-5-(1-naphthylcarbamoylamino)pyrazol-1-yl]-N-[2-(2-hydroxyethoxy)ethyl]benzamide

> <PUBCHEM_IUPAC_INCHI>
InChI=1S/C29H33N5O4/c1-29(2,3)25-19-26(32-28(37)31-24-13-7-9-20-8-4-5-12-23(20)24)34(33-25)22-11-6-10-21(18-22)27(36)30-14-16-38-17-15-35/h4-13,18-19,35H,14-17H2,1-3H3,(H,30,36)(H2,31,32,37)

> <PUBCHEM_IUPAC_INCHIKEY>
KUVNSIJSYBSMJX-UHFFFAOYSA-N

> <PUBCHEM_XLOGP3_AA>
4.2

> <PUBCHEM_EXACT_MASS>
515.25325455

> <PUBCHEM_MOLECULAR_FORMULA>
C29H33N5O4

> <PUBCHEM_MOLECULAR_WEIGHT>
515.6

> <PUBCHEM_SMILES>
CC(C)(C)C1=NN(C(=C1)NC(=O)NC2=CC=CC3=CC=CC=C32)C4=CC=CC(=C4)C(=O)NCCOCCO

> <PUBCHEM_OPENEYE_CAN_SMILES>
CC(C)(C)C1=NN(C(=C1)NC(=O)NC2=CC=CC3=CC=CC=C32)C4=CC=CC(=C4)C(=O)NCCOCCO

> <PUBCHEM_OPENEYE_ISO_SMILES>
CC(C)(C)C1=NN(C(=C1)NC(=O)NC2=CC=CC3=CC=CC=C32)C4=CC=CC(=C4)C(=O)NCCOCCO

> <PUBCHEM_CACTVS_TPSA>
118

> <PUBCHEM_MONOISOTOPIC_WEIGHT>
515.25325455

> <PUBCHEM_TOTAL_CHARGE>
0

> <PUBCHEM_HEAVY_ATOM_COUNT>
38

> <PUBCHEM_ATOM_DEF_STEREO_COUNT>
0

> <PUBCHEM_ATOM_UDEF_STEREO_COUNT>
0

> <PUBCHEM_BOND_DEF_STEREO_COUNT>
0

> <PUBCHEM_BOND_UDEF_STEREO_COUNT>
0

> <PUBCHEM_ISOTOPIC_ATOM_COUNT>
0

> <PUBCHEM_COMPONENT_COUNT>
1

> <PUBCHEM_CACTVS_TAUTO_COUNT>
-1

> <PUBCHEM_COORDINATE_TYPE>
1
5
255

> <PUBCHEM_BONDANNOTATIONS>
11  15  8
15  16  8
17  18  8
17  19  8
18  20  8
19  22  8
20  23  8
22  23  8
24  25  8
24  28  8
25  27  8
25  30  8
27  31  8
27  33  8
28  32  8
30  35  8
31  32  8
33  36  8
35  36  8
5  16  8
5  6  8
6  11  8

$$$$
