19959069
  -OEChem-03202505392D

 45 48  0     0  0  0  0  0  0999 V2000
    7.2622    3.6550    0.0000 O   0  0  0  0  0  0  0  0  0  0  0  0
    7.2622   -3.3450    0.0000 O   0  0  0  0  0  0  0  0  0  0  0  0
    8.9942    3.6550    0.0000 O   0  0  0  0  0  0  0  0  0  0  0  0
    7.2622    0.6550    0.0000 N   0  0  0  0  0  0  0  0  0  0  0  0
    9.8602    2.1550    0.0000 N   0  0  0  0  0  0  0  0  0  0  0  0
    2.0038   -0.3758    0.0000 N   0  0  0  0  0  0  0  0  0  0  0  0
    6.3961    1.1550    0.0000 C   0  0  0  0  0  0  0  0  0  0  0  0
    6.3961    2.1550    0.0000 C   0  0  0  0  0  0  0  0  0  0  0  0
    7.2622   -0.3450    0.0000 C   0  0  0  0  0  0  0  0  0  0  0  0
    5.5022    0.6203    0.0000 C   0  0  0  0  0  0  0  0  0  0  0  0
    8.1282    1.1550    0.0000 C   0  0  0  0  0  0  0  0  0  0  0  0
    4.5961    1.1342    0.0000 C   0  0  0  0  0  0  0  0  0  0  0  0
    7.2622    2.6550    0.0000 C   0  0  0  0  0  0  0  0  0  0  0  0
    8.1282    2.1550    0.0000 C   0  0  0  0  0  0  0  0  0  0  0  0
    6.3961   -0.8450    0.0000 C   0  0  0  0  0  0  0  0  0  0  0  0
    5.5022    2.6897    0.0000 C   0  0  0  0  0  0  0  0  0  0  0  0
    4.5961    2.1758    0.0000 C   0  0  0  0  0  0  0  0  0  0  0  0
    8.1282   -0.8450    0.0000 C   0  0  0  0  0  0  0  0  0  0  0  0
    3.7320    0.6308    0.0000 C   0  0  0  0  0  0  0  0  0  0  0  0
    6.3961   -1.8450    0.0000 C   0  0  0  0  0  0  0  0  0  0  0  0
    5.5301   -0.3450    0.0000 C   0  0  0  0  0  0  0  0  0  0  0  0
    8.1282   -1.8450    0.0000 C   0  0  0  0  0  0  0  0  0  0  0  0
    7.2622   -2.3450    0.0000 C   0  0  0  0  0  0  0  0  0  0  0  0
    8.9942    2.6550    0.0000 C   0  0  0  0  0  0  0  0  0  0  0  0
    2.8641    1.1275    0.0000 C   0  0  0  0  0  0  0  0  0  0  0  0
    3.7359   -0.3691    0.0000 C   0  0  0  0  0  0  0  0  0  0  0  0
    2.0000    0.6242    0.0000 C   0  0  0  0  0  0  0  0  0  0  0  0
    2.8718   -0.8725    0.0000 C   0  0  0  0  0  0  0  0  0  0  0  0
    5.5094    0.0004    0.0000 H   0  0  0  0  0  0  0  0  0  0  0  0
    8.6651    0.8450    0.0000 H   0  0  0  0  0  0  0  0  0  0  0  0
    5.5094    3.3096    0.0000 H   0  0  0  0  0  0  0  0  0  0  0  0
    4.0604    2.4879    0.0000 H   0  0  0  0  0  0  0  0  0  0  0  0
    8.6651   -0.5350    0.0000 H   0  0  0  0  0  0  0  0  0  0  0  0
    5.8592   -2.1550    0.0000 H   0  0  0  0  0  0  0  0  0  0  0  0
    5.8401    0.1919    0.0000 H   0  0  0  0  0  0  0  0  0  0  0  0
    4.9932   -0.0350    0.0000 H   0  0  0  0  0  0  0  0  0  0  0  0
    5.2201   -0.8819    0.0000 H   0  0  0  0  0  0  0  0  0  0  0  0
    8.6651   -2.1550    0.0000 H   0  0  0  0  0  0  0  0  0  0  0  0
    2.8617    1.7475    0.0000 H   0  0  0  0  0  0  0  0  0  0  0  0
    4.2740   -0.6771    0.0000 H   0  0  0  0  0  0  0  0  0  0  0  0
    1.4619    0.9321    0.0000 H   0  0  0  0  0  0  0  0  0  0  0  0
    2.8742   -1.4925    0.0000 H   0  0  0  0  0  0  0  0  0  0  0  0
   10.3972    2.4650    0.0000 H   0  0  0  0  0  0  0  0  0  0  0  0
    9.8602    1.5350    0.0000 H   0  0  0  0  0  0  0  0  0  0  0  0
    7.7991   -3.6550    0.0000 H   0  0  0  0  0  0  0  0  0  0  0  0
  1 13  2  0  0  0  0
  2 23  1  0  0  0  0
  2 45  1  0  0  0  0
  3 24  2  0  0  0  0
  4  7  1  0  0  0  0
  4  9  1  0  0  0  0
  4 11  1  0  0  0  0
  5 24  1  0  0  0  0
  5 43  1  0  0  0  0
  5 44  1  0  0  0  0
  6 27  2  0  0  0  0
  6 28  1  0  0  0  0
  7  8  2  0  0  0  0
  7 10  1  0  0  0  0
  8 13  1  0  0  0  0
  8 16  1  0  0  0  0
  9 15  2  0  0  0  0
  9 18  1  0  0  0  0
 10 12  2  0  0  0  0
 10 29  1  0  0  0  0
 11 14  2  0  0  0  0
 11 30  1  0  0  0  0
 12 17  1  0  0  0  0
 12 19  1  0  0  0  0
 13 14  1  0  0  0  0
 14 24  1  0  0  0  0
 15 20  1  0  0  0  0
 15 21  1  0  0  0  0
 16 17  2  0  0  0  0
 16 31  1  0  0  0  0
 17 32  1  0  0  0  0
 18 22  2  0  0  0  0
 18 33  1  0  0  0  0
 19 25  2  0  0  0  0
 19 26  1  0  0  0  0
 20 23  2  0  0  0  0
 20 34  1  0  0  0  0
 21 35  1  0  0  0  0
 21 36  1  0  0  0  0
 21 37  1  0  0  0  0
 22 23  1  0  0  0  0
 22 38  1  0  0  0  0
 25 27  1  0  0  0  0
 25 39  1  0  0  0  0
 26 28  2  0  0  0  0
 26 40  1  0  0  0  0
 27 41  1  0  0  0  0
 28 42  1  0  0  0  0
M  END
> <PUBCHEM_COMPOUND_CID>
19959069

> <PUBCHEM_COMPOUND_CANONICALIZED>
1

> <PUBCHEM_CACTVS_COMPLEXITY>
643

> <PUBCHEM_CACTVS_HBOND_ACCEPTOR>
5

> <PUBCHEM_CACTVS_HBOND_DONOR>
2

> <PUBCHEM_CACTVS_ROTATABLE_BOND>
3

> <PUBCHEM_CACTVS_SUBSKEYS>
AAADceB7MAAAAAAAAAAAAAAAAAAAAAAAAAA8YIEAAAAAAACB0AAAHgAQCAAADAzBmgQ+xpNIEgCoArV3VACCgCA1IiAI2CE+bNgIJnrKlZOEcYhkwBHI2ce4ydCewEABQAACAACAgAKAAAQAAAAAAAAAAA==

> <PUBCHEM_IUPAC_OPENEYE_NAME>
1-(4-hydroxy-2-methyl-phenyl)-4-oxo-7-(4-pyridyl)quinoline-3-carboxamide

> <PUBCHEM_IUPAC_CAS_NAME>
1-(4-hydroxy-2-methylphenyl)-4-oxo-7-pyridin-4-yl-3-quinolinecarboxamide

> <PUBCHEM_IUPAC_NAME_MARKUP>
1-(4-hydroxy-2-methylphenyl)-4-oxo-7-pyridin-4-ylquinoline-3-carboxamide

> <PUBCHEM_IUPAC_NAME>
1-(4-hydroxy-2-methylphenyl)-4-oxo-7-pyridin-4-ylquinoline-3-carboxamide

> <PUBCHEM_IUPAC_SYSTEMATIC_NAME>
1-(2-methyl-4-oxidanyl-phenyl)-4-oxidanylidene-7-pyridin-4-yl-quinoline-3-carboxamide

> <PUBCHEM_IUPAC_TRADITIONAL_NAME>
1-(4-hydroxy-2-methyl-phenyl)-4-keto-7-(4-pyridyl)quinoline-3-carboxamide

> <PUBCHEM_IUPAC_INCHI>
InChI=1S/C22H17N3O3/c1-13-10-16(26)3-5-19(13)25-12-18(22(23)28)21(27)17-4-2-15(11-20(17)25)14-6-8-24-9-7-14/h2-12,26H,1H3,(H2,23,28)

> <PUBCHEM_IUPAC_INCHIKEY>
XOVPCPRZRHQFBI-UHFFFAOYSA-N

> <PUBCHEM_XLOGP3>
1.1

> <PUBCHEM_EXACT_MASS>
371.12699141

> <PUBCHEM_MOLECULAR_FORMULA>
C22H17N3O3

> <PUBCHEM_MOLECULAR_WEIGHT>
371.4

> <PUBCHEM_SMILES>
CC1=C(C=CC(=C1)O)N2C=C(C(=O)C3=C2C=C(C=C3)C4=CC=NC=C4)C(=O)N

> <PUBCHEM_OPENEYE_CAN_SMILES>
CC1=C(C=CC(=C1)O)N2C=C(C(=O)C3=C2C=C(C=C3)C4=CC=NC=C4)C(=O)N

> <PUBCHEM_OPENEYE_ISO_SMILES>
CC1=C(C=CC(=C1)O)N2C=C(C(=O)C3=C2C=C(C=C3)C4=CC=NC=C4)C(=O)N

> <PUBCHEM_CACTVS_TPSA>
96.5

> <PUBCHEM_MONOISOTOPIC_WEIGHT>
371.12699141

> <PUBCHEM_TOTAL_CHARGE>
0

> <PUBCHEM_HEAVY_ATOM_COUNT>
28

> <PUBCHEM_ATOM_DEF_STEREO_COUNT>
0

> <PUBCHEM_ATOM_UDEF_STEREO_COUNT>
0

> <PUBCHEM_BOND_DEF_STEREO_COUNT>
0

> <PUBCHEM_BOND_UDEF_STEREO_COUNT>
0

> <PUBCHEM_ISOTOPIC_ATOM_COUNT>
0

> <PUBCHEM_COMPONENT_COUNT>
1

> <PUBCHEM_CACTVS_TAUTO_COUNT>
-1

> <PUBCHEM_COORDINATE_TYPE>
1
5
255

> <PUBCHEM_BONDANNOTATIONS>
10  12  8
11  14  8
12  17  8
13  14  8
15  20  8
16  17  8
18  22  8
19  25  8
19  26  8
20  23  8
22  23  8
25  27  8
26  28  8
4  11  8
4  7  8
6  27  8
6  28  8
7  10  8
7  8  8
8  13  8
8  16  8
9  15  8
9  18  8

$$$$
