49830795
  -OEChem-03202503482D

 37 39  0     0  0  0  0  0  0999 V2000
    3.0000    2.4515    0.0000 S   0  0  0  0  0  0  0  0  0  0  0  0
    4.8122   -3.3532    0.0000 S   0  0  0  0  0  0  0  0  0  0  0  0
    2.0000    2.4515    0.0000 O   0  0  0  0  0  0  0  0  0  0  0  0
    4.0000    2.4515    0.0000 O   0  0  0  0  0  0  0  0  0  0  0  0
    6.8958   -1.6825    0.0000 O   0  0  0  0  0  0  0  0  0  0  0  0
    2.1340   -3.0485    0.0000 N   0  0  0  0  0  0  0  0  0  0  0  0
    6.8958   -3.4145    0.0000 N   0  0  0  0  0  0  0  0  0  0  0  0
    3.0000    1.4515    0.0000 C   0  0  0  0  0  0  0  0  0  0  0  0
    3.0000   -0.5485    0.0000 C   0  0  0  0  0  0  0  0  0  0  0  0
    3.0000   -1.5485    0.0000 C   0  0  0  0  0  0  0  0  0  0  0  0
    3.8660   -2.0485    0.0000 C   0  0  0  0  0  0  0  0  0  0  0  0
    3.0000    3.4515    0.0000 C   0  0  0  0  0  0  0  0  0  0  0  0
    3.8660    0.9515    0.0000 C   0  0  0  0  0  0  0  0  0  0  0  0
    2.1340    0.9515    0.0000 C   0  0  0  0  0  0  0  0  0  0  0  0
    3.8660   -0.0485    0.0000 C   0  0  0  0  0  0  0  0  0  0  0  0
    2.1340   -0.0485    0.0000 C   0  0  0  0  0  0  0  0  0  0  0  0
    3.8660   -3.0485    0.0000 C   0  0  0  0  0  0  0  0  0  0  0  0
    4.8122   -1.7438    0.0000 C   0  0  0  0  0  0  0  0  0  0  0  0
    2.1340   -2.0485    0.0000 C   0  0  0  0  0  0  0  0  0  0  0  0
    5.3958   -2.5485    0.0000 C   0  0  0  0  0  0  0  0  0  0  0  0
    2.1340    3.9515    0.0000 C   0  0  0  0  0  0  0  0  0  0  0  0
    3.0000   -3.5485    0.0000 C   0  0  0  0  0  0  0  0  0  0  0  0
    6.3958   -2.5485    0.0000 C   0  0  0  0  0  0  0  0  0  0  0  0
    3.6106    3.3438    0.0000 H   0  0  0  0  0  0  0  0  0  0  0  0
    3.2120    4.0341    0.0000 H   0  0  0  0  0  0  0  0  0  0  0  0
    4.4030    1.2615    0.0000 H   0  0  0  0  0  0  0  0  0  0  0  0
    1.5970    1.2615    0.0000 H   0  0  0  0  0  0  0  0  0  0  0  0
    4.4030   -0.3585    0.0000 H   0  0  0  0  0  0  0  0  0  0  0  0
    1.5970   -0.3585    0.0000 H   0  0  0  0  0  0  0  0  0  0  0  0
    5.0049   -1.1545    0.0000 H   0  0  0  0  0  0  0  0  0  0  0  0
    1.5970   -1.7385    0.0000 H   0  0  0  0  0  0  0  0  0  0  0  0
    2.4440    4.4884    0.0000 H   0  0  0  0  0  0  0  0  0  0  0  0
    1.5970    4.2615    0.0000 H   0  0  0  0  0  0  0  0  0  0  0  0
    1.8240    3.4145    0.0000 H   0  0  0  0  0  0  0  0  0  0  0  0
    3.0000   -4.1685    0.0000 H   0  0  0  0  0  0  0  0  0  0  0  0
    7.5158   -3.4145    0.0000 H   0  0  0  0  0  0  0  0  0  0  0  0
    6.5858   -3.9515    0.0000 H   0  0  0  0  0  0  0  0  0  0  0  0
  1  3  2  0  0  0  0
  1  4  2  0  0  0  0
  1  8  1  0  0  0  0
  1 12  1  0  0  0  0
  2 17  1  0  0  0  0
  2 20  1  0  0  0  0
  5 23  2  0  0  0  0
  6 19  1  0  0  0  0
  6 22  2  0  0  0  0
  7 23  1  0  0  0  0
  7 36  1  0  0  0  0
  7 37  1  0  0  0  0
  8 13  2  0  0  0  0
  8 14  1  0  0  0  0
  9 10  1  0  0  0  0
  9 15  2  0  0  0  0
  9 16  1  0  0  0  0
 10 11  1  0  0  0  0
 10 19  2  0  0  0  0
 11 17  2  0  0  0  0
 11 18  1  0  0  0  0
 12 21  1  0  0  0  0
 12 24  1  0  0  0  0
 12 25  1  0  0  0  0
 13 15  1  0  0  0  0
 13 26  1  0  0  0  0
 14 16  2  0  0  0  0
 14 27  1  0  0  0  0
 15 28  1  0  0  0  0
 16 29  1  0  0  0  0
 17 22  1  0  0  0  0
 18 20  2  0  0  0  0
 18 30  1  0  0  0  0
 19 31  1  0  0  0  0
 20 23  1  0  0  0  0
 21 32  1  0  0  0  0
 21 33  1  0  0  0  0
 21 34  1  0  0  0  0
 22 35  1  0  0  0  0
M  END
> <PUBCHEM_COMPOUND_CID>
49830795

> <PUBCHEM_COMPOUND_CANONICALIZED>
1

> <PUBCHEM_CACTVS_COMPLEXITY>
538

> <PUBCHEM_CACTVS_HBOND_ACCEPTOR>
5

> <PUBCHEM_CACTVS_HBOND_DONOR>
1

> <PUBCHEM_CACTVS_ROTATABLE_BOND>
4

> <PUBCHEM_CACTVS_SUBSKEYS>
AAADccB7MABgAAAAAAAAAAAAAAAAASAAAAA8QAAAAAAAAFgB/AAAHgQQAAAADADF2gS+gdJIEAqsAjF3VHDDoKA1CDBI2D0oRNgIIHLglZGEIQhggADoyYcYiMCOkAAAAAAAAAAgAAAAAAAAAAAAAAAAAA==

> <PUBCHEM_IUPAC_OPENEYE_NAME>
4-(4-ethylsulfonylphenyl)thieno[2,3-c]pyridine-2-carboxamide

> <PUBCHEM_IUPAC_CAS_NAME>
4-(4-ethylsulfonylphenyl)-2-thieno[2,3-c]pyridinecarboxamide

> <PUBCHEM_IUPAC_NAME_MARKUP>
4-(4-ethylsulfonylphenyl)thieno[2,3-c]pyridine-2-carboxamide

> <PUBCHEM_IUPAC_NAME>
4-(4-ethylsulfonylphenyl)thieno[2,3-c]pyridine-2-carboxamide

> <PUBCHEM_IUPAC_SYSTEMATIC_NAME>
4-(4-ethylsulfonylphenyl)thieno[2,3-c]pyridine-2-carboxamide

> <PUBCHEM_IUPAC_TRADITIONAL_NAME>
4-(4-esylphenyl)thieno[2,3-c]pyridine-2-carboxamide

> <PUBCHEM_IUPAC_INCHI>
InChI=1S/C16H14N2O3S2/c1-2-23(20,21)11-5-3-10(4-6-11)13-8-18-9-15-12(13)7-14(22-15)16(17)19/h3-9H,2H2,1H3,(H2,17,19)

> <PUBCHEM_IUPAC_INCHIKEY>
NHEQNFWGPSKRMJ-UHFFFAOYSA-N

> <PUBCHEM_XLOGP3_AA>
2.3

> <PUBCHEM_EXACT_MASS>
346.04458466

> <PUBCHEM_MOLECULAR_FORMULA>
C16H14N2O3S2

> <PUBCHEM_MOLECULAR_WEIGHT>
346.4

> <PUBCHEM_SMILES>
CCS(=O)(=O)C1=CC=C(C=C1)C2=CN=CC3=C2C=C(S3)C(=O)N

> <PUBCHEM_OPENEYE_CAN_SMILES>
CCS(=O)(=O)C1=CC=C(C=C1)C2=CN=CC3=C2C=C(S3)C(=O)N

> <PUBCHEM_OPENEYE_ISO_SMILES>
CCS(=O)(=O)C1=CC=C(C=C1)C2=CN=CC3=C2C=C(S3)C(=O)N

> <PUBCHEM_CACTVS_TPSA>
127

> <PUBCHEM_MONOISOTOPIC_WEIGHT>
346.04458466

> <PUBCHEM_TOTAL_CHARGE>
0

> <PUBCHEM_HEAVY_ATOM_COUNT>
23

> <PUBCHEM_ATOM_DEF_STEREO_COUNT>
0

> <PUBCHEM_ATOM_UDEF_STEREO_COUNT>
0

> <PUBCHEM_BOND_DEF_STEREO_COUNT>
0

> <PUBCHEM_BOND_UDEF_STEREO_COUNT>
0

> <PUBCHEM_ISOTOPIC_ATOM_COUNT>
0

> <PUBCHEM_COMPONENT_COUNT>
1

> <PUBCHEM_CACTVS_TAUTO_COUNT>
-1

> <PUBCHEM_COORDINATE_TYPE>
1
5
255

> <PUBCHEM_BONDANNOTATIONS>
10  11  8
10  19  8
11  17  8
11  18  8
13  15  8
14  16  8
17  22  8
18  20  8
2  17  8
2  20  8
6  19  8
6  22  8
8  13  8
8  14  8
9  15  8
9  16  8

$$$$
