49831007
  -OEChem-03202503562D

 81 85  0     0  0  0  0  0  0999 V2000
    2.0000    4.0000    0.0000 O   0  0  0  0  0  0  0  0  0  0  0  0
    5.4641    3.0000    0.0000 O   0  0  0  0  0  0  0  0  0  0  0  0
   11.5263   -0.5000    0.0000 O   0  0  0  0  0  0  0  0  0  0  0  0
    9.7942   -3.5000    0.0000 O   0  0  0  0  0  0  0  0  0  0  0  0
    4.5981   -3.5000    0.0000 O   0  0  0  0  0  0  0  0  0  0  0  0
    3.7320    3.0000    0.0000 N   0  0  0  0  0  0  0  0  0  0  0  0
   10.6603   -2.0000    0.0000 N   0  0  0  0  0  0  0  0  0  0  0  0
    6.3301   -3.5000    0.0000 N   0  0  0  0  0  0  0  0  0  0  0  0
    4.5981   -1.5000    0.0000 N   0  0  0  0  0  0  0  0  0  0  0  0
    3.7320   -0.0000    0.0000 N   0  0  0  0  0  0  0  0  0  0  0  0
   14.9904   -3.5000    0.0000 C   0  0  0  0  0  0  0  0  0  0  0  0
   14.1244   -3.0000    0.0000 C   0  0  0  0  0  0  0  0  0  0  0  0
   15.8564   -4.0000    0.0000 C   0  0  0  0  0  0  0  0  0  0  0  0
   15.4904   -2.6340    0.0000 C   0  0  0  0  0  0  0  0  0  0  0  0
   14.4904   -4.3660    0.0000 C   0  0  0  0  0  0  0  0  0  0  0  0
    2.8660    2.5000    0.0000 C   0  0  0  0  0  0  0  0  0  0  0  0
    3.7320    4.0000    0.0000 C   0  0  0  0  0  0  0  0  0  0  0  0
   14.1244   -2.0000    0.0000 C   0  0  0  0  0  0  0  0  0  0  0  0
   13.2583   -3.5000    0.0000 C   0  0  0  0  0  0  0  0  0  0  0  0
    2.0000    3.0000    0.0000 C   0  0  0  0  0  0  0  0  0  0  0  0
    2.8660    4.5000    0.0000 C   0  0  0  0  0  0  0  0  0  0  0  0
   12.3923   -2.0000    0.0000 C   0  0  0  0  0  0  0  0  0  0  0  0
   13.2583   -1.5000    0.0000 C   0  0  0  0  0  0  0  0  0  0  0  0
   12.3923   -3.0000    0.0000 C   0  0  0  0  0  0  0  0  0  0  0  0
    4.5981    2.5000    0.0000 C   0  0  0  0  0  0  0  0  0  0  0  0
    8.0622   -1.5000    0.0000 C   0  0  0  0  0  0  0  0  0  0  0  0
    8.9282   -2.0000    0.0000 C   0  0  0  0  0  0  0  0  0  0  0  0
    7.1962   -2.0000    0.0000 C   0  0  0  0  0  0  0  0  0  0  0  0
    9.7942   -1.5000    0.0000 C   0  0  0  0  0  0  0  0  0  0  0  0
   11.5263   -1.5000    0.0000 C   0  0  0  0  0  0  0  0  0  0  0  0
    4.5981    1.5000    0.0000 C   0  0  0  0  0  0  0  0  0  0  0  0
    5.4641   -2.0000    0.0000 C   0  0  0  0  0  0  0  0  0  0  0  0
    6.3301   -1.5000    0.0000 C   0  0  0  0  0  0  0  0  0  0  0  0
    7.1962   -3.0000    0.0000 C   0  0  0  0  0  0  0  0  0  0  0  0
    8.0622   -0.5000    0.0000 C   0  0  0  0  0  0  0  0  0  0  0  0
    8.9282   -3.0000    0.0000 C   0  0  0  0  0  0  0  0  0  0  0  0
    9.7942   -0.5000    0.0000 C   0  0  0  0  0  0  0  0  0  0  0  0
    5.4641   -3.0000    0.0000 C   0  0  0  0  0  0  0  0  0  0  0  0
    8.9282    0.0000    0.0000 C   0  0  0  0  0  0  0  0  0  0  0  0
    5.4641    1.0000    0.0000 C   0  0  0  0  0  0  0  0  0  0  0  0
    4.5981   -0.5000    0.0000 C   0  0  0  0  0  0  0  0  0  0  0  0
    3.7320    1.0000    0.0000 C   0  0  0  0  0  0  0  0  0  0  0  0
    5.4641   -0.0000    0.0000 C   0  0  0  0  0  0  0  0  0  0  0  0
    6.3301   -4.5000    0.0000 C   0  0  0  0  0  0  0  0  0  0  0  0
   15.5464   -4.5369    0.0000 H   0  0  0  0  0  0  0  0  0  0  0  0
   16.3933   -4.3100    0.0000 H   0  0  0  0  0  0  0  0  0  0  0  0
   16.1664   -3.4631    0.0000 H   0  0  0  0  0  0  0  0  0  0  0  0
   16.0273   -2.9440    0.0000 H   0  0  0  0  0  0  0  0  0  0  0  0
   15.8004   -2.0970    0.0000 H   0  0  0  0  0  0  0  0  0  0  0  0
   14.9534   -2.3240    0.0000 H   0  0  0  0  0  0  0  0  0  0  0  0
   13.9534   -4.0560    0.0000 H   0  0  0  0  0  0  0  0  0  0  0  0
   14.1804   -4.9030    0.0000 H   0  0  0  0  0  0  0  0  0  0  0  0
   15.0273   -4.6760    0.0000 H   0  0  0  0  0  0  0  0  0  0  0  0
    2.4675    2.0250    0.0000 H   0  0  0  0  0  0  0  0  0  0  0  0
    3.2646    2.0250    0.0000 H   0  0  0  0  0  0  0  0  0  0  0  0
    4.3426    3.8923    0.0000 H   0  0  0  0  0  0  0  0  0  0  0  0
    3.9441    4.5826    0.0000 H   0  0  0  0  0  0  0  0  0  0  0  0
   14.6613   -1.6900    0.0000 H   0  0  0  0  0  0  0  0  0  0  0  0
   13.2583   -4.1200    0.0000 H   0  0  0  0  0  0  0  0  0  0  0  0
    1.3894    3.1077    0.0000 H   0  0  0  0  0  0  0  0  0  0  0  0
    1.7880    2.4174    0.0000 H   0  0  0  0  0  0  0  0  0  0  0  0
    3.2646    4.9750    0.0000 H   0  0  0  0  0  0  0  0  0  0  0  0
    2.4675    4.9750    0.0000 H   0  0  0  0  0  0  0  0  0  0  0  0
   13.2583   -0.8800    0.0000 H   0  0  0  0  0  0  0  0  0  0  0  0
   11.8554   -3.3100    0.0000 H   0  0  0  0  0  0  0  0  0  0  0  0
   10.6603   -2.6200    0.0000 H   0  0  0  0  0  0  0  0  0  0  0  0
    6.3301   -0.8800    0.0000 H   0  0  0  0  0  0  0  0  0  0  0  0
    7.7331   -3.3100    0.0000 H   0  0  0  0  0  0  0  0  0  0  0  0
    7.5252   -0.1900    0.0000 H   0  0  0  0  0  0  0  0  0  0  0  0
    8.3176   -2.8923    0.0000 H   0  0  0  0  0  0  0  0  0  0  0  0
    8.7162   -3.5826    0.0000 H   0  0  0  0  0  0  0  0  0  0  0  0
   10.3312   -0.1900    0.0000 H   0  0  0  0  0  0  0  0  0  0  0  0
    8.9282    0.6200    0.0000 H   0  0  0  0  0  0  0  0  0  0  0  0
    6.0010    1.3100    0.0000 H   0  0  0  0  0  0  0  0  0  0  0  0
    4.0611   -1.8100    0.0000 H   0  0  0  0  0  0  0  0  0  0  0  0
    3.1951    1.3100    0.0000 H   0  0  0  0  0  0  0  0  0  0  0  0
    6.0010   -0.3100    0.0000 H   0  0  0  0  0  0  0  0  0  0  0  0
    5.7101   -4.5000    0.0000 H   0  0  0  0  0  0  0  0  0  0  0  0
    6.3301   -5.1200    0.0000 H   0  0  0  0  0  0  0  0  0  0  0  0
    6.9501   -4.5000    0.0000 H   0  0  0  0  0  0  0  0  0  0  0  0
    9.7942   -4.1200    0.0000 H   0  0  0  0  0  0  0  0  0  0  0  0
  1 20  1  0  0  0  0
  1 21  1  0  0  0  0
  2 25  2  0  0  0  0
  3 30  2  0  0  0  0
  4 36  1  0  0  0  0
  4 81  1  0  0  0  0
  5 38  2  0  0  0  0
  6 16  1  0  0  0  0
  6 17  1  0  0  0  0
  6 25  1  0  0  0  0
  7 29  1  0  0  0  0
  7 30  1  0  0  0  0
  7 66  1  0  0  0  0
  8 34  1  0  0  0  0
  8 38  1  0  0  0  0
  8 44  1  0  0  0  0
  9 32  1  0  0  0  0
  9 41  1  0  0  0  0
  9 75  1  0  0  0  0
 10 41  2  0  0  0  0
 10 42  1  0  0  0  0
 11 12  1  0  0  0  0
 11 13  1  0  0  0  0
 11 14  1  0  0  0  0
 11 15  1  0  0  0  0
 12 18  2  0  0  0  0
 12 19  1  0  0  0  0
 13 45  1  0  0  0  0
 13 46  1  0  0  0  0
 13 47  1  0  0  0  0
 14 48  1  0  0  0  0
 14 49  1  0  0  0  0
 14 50  1  0  0  0  0
 15 51  1  0  0  0  0
 15 52  1  0  0  0  0
 15 53  1  0  0  0  0
 16 20  1  0  0  0  0
 16 54  1  0  0  0  0
 16 55  1  0  0  0  0
 17 21  1  0  0  0  0
 17 56  1  0  0  0  0
 17 57  1  0  0  0  0
 18 23  1  0  0  0  0
 18 58  1  0  0  0  0
 19 24  2  0  0  0  0
 19 59  1  0  0  0  0
 20 60  1  0  0  0  0
 20 61  1  0  0  0  0
 21 62  1  0  0  0  0
 21 63  1  0  0  0  0
 22 23  2  0  0  0  0
 22 24  1  0  0  0  0
 22 30  1  0  0  0  0
 23 64  1  0  0  0  0
 24 65  1  0  0  0  0
 25 31  1  0  0  0  0
 26 27  2  0  0  0  0
 26 28  1  0  0  0  0
 26 35  1  0  0  0  0
 27 29  1  0  0  0  0
 27 36  1  0  0  0  0
 28 33  1  0  0  0  0
 28 34  2  0  0  0  0
 29 37  2  0  0  0  0
 31 40  1  0  0  0  0
 31 42  2  0  0  0  0
 32 33  2  0  0  0  0
 32 38  1  0  0  0  0
 33 67  1  0  0  0  0
 34 68  1  0  0  0  0
 35 39  2  0  0  0  0
 35 69  1  0  0  0  0
 36 70  1  0  0  0  0
 36 71  1  0  0  0  0
 37 39  1  0  0  0  0
 37 72  1  0  0  0  0
 39 73  1  0  0  0  0
 40 43  2  0  0  0  0
 40 74  1  0  0  0  0
 41 43  1  0  0  0  0
 42 76  1  0  0  0  0
 43 77  1  0  0  0  0
 44 78  1  0  0  0  0
 44 79  1  0  0  0  0
 44 80  1  0  0  0  0
M  END
> <PUBCHEM_COMPOUND_CID>
49831007

> <PUBCHEM_COMPOUND_CANONICALIZED>
1

> <PUBCHEM_CACTVS_COMPLEXITY>
1100

> <PUBCHEM_CACTVS_HBOND_ACCEPTOR>
7

> <PUBCHEM_CACTVS_HBOND_DONOR>
3

> <PUBCHEM_CACTVS_ROTATABLE_BOND>
8

> <PUBCHEM_CACTVS_SUBSKEYS>
AAADcfB/uAAAAAAAAAAAAAAAAAAAAAAAAAA8eIECAAAAAAAB0AAAHgAQCAAADgjhmgY/8JPIFgCoAjd3dACCgCk1AiAJ2CG4bNiKdvrA3bGXcYhu1gPY2eeYyeCPwAAAQAASAACAAACAACQAAAAAAAAAAA==

> <PUBCHEM_IUPAC_OPENEYE_NAME>
4-tert-butyl-N-[2-(hydroxymethyl)-3-[1-methyl-5-[[5-(morpholine-4-carbonyl)-2-pyridyl]amino]-6-oxo-3-pyridyl]phenyl]benzamide

> <PUBCHEM_IUPAC_CAS_NAME>
4-tert-butyl-N-[2-(hydroxymethyl)-3-[1-methyl-5-[[5-[4-morpholinyl(oxo)methyl]-2-pyridinyl]amino]-6-oxo-3-pyridinyl]phenyl]benzamide

> <PUBCHEM_IUPAC_NAME_MARKUP>
4-<I>tert</I>-butyl-<I>N</I>-[2-(hydroxymethyl)-3-[1-methyl-5-[[5-(morpholine-4-carbonyl)pyridin-2-yl]amino]-6-oxopyridin-3-yl]phenyl]benzamide

> <PUBCHEM_IUPAC_NAME>
4-tert-butyl-N-[2-(hydroxymethyl)-3-[1-methyl-5-[[5-(morpholine-4-carbonyl)pyridin-2-yl]amino]-6-oxopyridin-3-yl]phenyl]benzamide

> <PUBCHEM_IUPAC_SYSTEMATIC_NAME>
4-tert-butyl-N-[2-(hydroxymethyl)-3-[1-methyl-5-[(5-morpholin-4-ylcarbonylpyridin-2-yl)amino]-6-oxidanylidene-pyridin-3-yl]phenyl]benzamide

> <PUBCHEM_IUPAC_TRADITIONAL_NAME>
4-tert-butyl-N-[3-[6-keto-1-methyl-5-[[5-(morpholine-4-carbonyl)-2-pyridyl]amino]-3-pyridyl]-2-methylol-phenyl]benzamide

> <PUBCHEM_IUPAC_INCHI>
InChI=1S/C34H37N5O5/c1-34(2,3)25-11-8-22(9-12-25)31(41)37-28-7-5-6-26(27(28)21-40)24-18-29(33(43)38(4)20-24)36-30-13-10-23(19-35-30)32(42)39-14-16-44-17-15-39/h5-13,18-20,40H,14-17,21H2,1-4H3,(H,35,36)(H,37,41)

> <PUBCHEM_IUPAC_INCHIKEY>
DGVVZCKWBRQGCX-UHFFFAOYSA-N

> <PUBCHEM_XLOGP3_AA>
3.8

> <PUBCHEM_EXACT_MASS>
595.27946930

> <PUBCHEM_MOLECULAR_FORMULA>
C34H37N5O5

> <PUBCHEM_MOLECULAR_WEIGHT>
595.7

> <PUBCHEM_SMILES>
CC(C)(C)C1=CC=C(C=C1)C(=O)NC2=CC=CC(=C2CO)C3=CN(C(=O)C(=C3)NC4=NC=C(C=C4)C(=O)N5CCOCC5)C

> <PUBCHEM_OPENEYE_CAN_SMILES>
CC(C)(C)C1=CC=C(C=C1)C(=O)NC2=CC=CC(=C2CO)C3=CN(C(=O)C(=C3)NC4=NC=C(C=C4)C(=O)N5CCOCC5)C

> <PUBCHEM_OPENEYE_ISO_SMILES>
CC(C)(C)C1=CC=C(C=C1)C(=O)NC2=CC=CC(=C2CO)C3=CN(C(=O)C(=C3)NC4=NC=C(C=C4)C(=O)N5CCOCC5)C

> <PUBCHEM_CACTVS_TPSA>
124

> <PUBCHEM_MONOISOTOPIC_WEIGHT>
595.27946930

> <PUBCHEM_TOTAL_CHARGE>
0

> <PUBCHEM_HEAVY_ATOM_COUNT>
44

> <PUBCHEM_ATOM_DEF_STEREO_COUNT>
0

> <PUBCHEM_ATOM_UDEF_STEREO_COUNT>
0

> <PUBCHEM_BOND_DEF_STEREO_COUNT>
0

> <PUBCHEM_BOND_UDEF_STEREO_COUNT>
0

> <PUBCHEM_ISOTOPIC_ATOM_COUNT>
0

> <PUBCHEM_COMPONENT_COUNT>
1

> <PUBCHEM_CACTVS_TAUTO_COUNT>
-1

> <PUBCHEM_COORDINATE_TYPE>
1
5
255

> <PUBCHEM_BONDANNOTATIONS>
10  41  8
10  42  8
12  18  8
12  19  8
18  23  8
19  24  8
22  23  8
22  24  8
26  27  8
26  35  8
27  29  8
28  33  8
28  34  8
29  37  8
31  40  8
31  42  8
32  33  8
32  38  8
35  39  8
37  39  8
40  43  8
41  43  8
8  34  8
8  38  8

$$$$
