49830903
  -OEChem-03202500512D

 27 29  0     0  0  0  0  0  0999 V2000
    2.0000    1.1970    0.0000 Br  0  0  0  0  0  0  0  0  0  0  0  0
    5.5443   -0.6077    0.0000 N   0  0  0  0  0  0  0  0  0  0  0  0
    3.7320   -0.8030    0.0000 N   0  0  0  0  0  0  0  0  0  0  0  0
    3.7320    1.1970    0.0000 N   0  0  0  0  0  0  0  0  0  0  0  0
    6.1279    0.1970    0.0000 C   0  0  0  0  0  0  0  0  0  0  0  0
    7.1279    0.1970    0.0000 C   0  0  0  0  0  0  0  0  0  0  0  0
    5.5443    1.0018    0.0000 C   0  0  0  0  0  0  0  0  0  0  0  0
    4.5981   -0.3030    0.0000 C   0  0  0  0  0  0  0  0  0  0  0  0
    4.5981    0.6970    0.0000 C   0  0  0  0  0  0  0  0  0  0  0  0
    7.6279    1.0630    0.0000 C   0  0  0  0  0  0  0  0  0  0  0  0
    7.6279   -0.6690    0.0000 C   0  0  0  0  0  0  0  0  0  0  0  0
    9.1279    0.1970    0.0000 C   0  0  0  0  0  0  0  0  0  0  0  0
    8.6279    1.0630    0.0000 C   0  0  0  0  0  0  0  0  0  0  0  0
    8.6279   -0.6690    0.0000 C   0  0  0  0  0  0  0  0  0  0  0  0
   10.1279    0.1970    0.0000 C   0  0  0  0  0  0  0  0  0  0  0  0
    2.8660   -0.3030    0.0000 C   0  0  0  0  0  0  0  0  0  0  0  0
    2.8660    0.6970    0.0000 C   0  0  0  0  0  0  0  0  0  0  0  0
    5.7369   -1.1970    0.0000 H   0  0  0  0  0  0  0  0  0  0  0  0
    5.7369    1.5911    0.0000 H   0  0  0  0  0  0  0  0  0  0  0  0
    7.3179    1.6000    0.0000 H   0  0  0  0  0  0  0  0  0  0  0  0
    7.3179   -1.2059    0.0000 H   0  0  0  0  0  0  0  0  0  0  0  0
    8.9379    1.6000    0.0000 H   0  0  0  0  0  0  0  0  0  0  0  0
    8.9379   -1.2059    0.0000 H   0  0  0  0  0  0  0  0  0  0  0  0
   10.1279   -0.4230    0.0000 H   0  0  0  0  0  0  0  0  0  0  0  0
   10.7479    0.1970    0.0000 H   0  0  0  0  0  0  0  0  0  0  0  0
   10.1279    0.8170    0.0000 H   0  0  0  0  0  0  0  0  0  0  0  0
    2.3291   -0.6130    0.0000 H   0  0  0  0  0  0  0  0  0  0  0  0
  1 17  1  0  0  0  0
  2  5  1  0  0  0  0
  2  8  1  0  0  0  0
  2 18  1  0  0  0  0
  3  8  2  0  0  0  0
  3 16  1  0  0  0  0
  4  9  2  0  0  0  0
  4 17  1  0  0  0  0
  5  6  1  0  0  0  0
  5  7  2  0  0  0  0
  6 10  2  0  0  0  0
  6 11  1  0  0  0  0
  7  9  1  0  0  0  0
  7 19  1  0  0  0  0
  8  9  1  0  0  0  0
 10 13  1  0  0  0  0
 10 20  1  0  0  0  0
 11 14  2  0  0  0  0
 11 21  1  0  0  0  0
 12 13  2  0  0  0  0
 12 14  1  0  0  0  0
 12 15  1  0  0  0  0
 13 22  1  0  0  0  0
 14 23  1  0  0  0  0
 15 24  1  0  0  0  0
 15 25  1  0  0  0  0
 15 26  1  0  0  0  0
 16 17  2  0  0  0  0
 16 27  1  0  0  0  0
M  END
> <PUBCHEM_COMPOUND_CID>
49830903

> <PUBCHEM_COMPOUND_CANONICALIZED>
1

> <PUBCHEM_CACTVS_COMPLEXITY>
265

> <PUBCHEM_CACTVS_HBOND_ACCEPTOR>
2

> <PUBCHEM_CACTVS_HBOND_DONOR>
1

> <PUBCHEM_CACTVS_ROTATABLE_BOND>
1

> <PUBCHEM_CACTVS_SUBSKEYS>
AAADccBzAAAAEAAAAAAAAAAAAAAAAWAAAAA8QAAAAAAAAFgB/AAAHABQAAABPAjBHwQ/8L7JkACgAzZnZACCgC2xEqAJ2SA4dJiIaOLA2dGUJAhokALIyCcQgMAOQAAAAAAAAACAAAAAAAAAAAAAAAAAAA==

> <PUBCHEM_IUPAC_OPENEYE_NAME>
2-bromo-6-(p-tolyl)-5H-pyrrolo[2,3-b]pyrazine

> <PUBCHEM_IUPAC_CAS_NAME>
2-bromo-6-(4-methylphenyl)-5H-pyrrolo[2,3-b]pyrazine

> <PUBCHEM_IUPAC_NAME_MARKUP>
2-bromo-6-(4-methylphenyl)-5<I>H</I>-pyrrolo[2,3-b]pyrazine

> <PUBCHEM_IUPAC_NAME>
2-bromo-6-(4-methylphenyl)-5H-pyrrolo[2,3-b]pyrazine

> <PUBCHEM_IUPAC_SYSTEMATIC_NAME>
2-bromanyl-6-(4-methylphenyl)-5H-pyrrolo[2,3-b]pyrazine

> <PUBCHEM_IUPAC_TRADITIONAL_NAME>
2-bromo-6-(p-tolyl)-5H-pyrrolo[2,3-b]pyrazine

> <PUBCHEM_IUPAC_INCHI>
InChI=1S/C13H10BrN3/c1-8-2-4-9(5-3-8)10-6-11-13(17-10)15-7-12(14)16-11/h2-7H,1H3,(H,15,17)

> <PUBCHEM_IUPAC_INCHIKEY>
SHZPFCZPWGVEED-UHFFFAOYSA-N

> <PUBCHEM_XLOGP3_AA>
3.4

> <PUBCHEM_EXACT_MASS>
287.00581

> <PUBCHEM_MOLECULAR_FORMULA>
C13H10BrN3

> <PUBCHEM_MOLECULAR_WEIGHT>
288.14

> <PUBCHEM_SMILES>
CC1=CC=C(C=C1)C2=CC3=NC(=CN=C3N2)Br

> <PUBCHEM_OPENEYE_CAN_SMILES>
CC1=CC=C(C=C1)C2=CC3=NC(=CN=C3N2)Br

> <PUBCHEM_OPENEYE_ISO_SMILES>
CC1=CC=C(C=C1)C2=CC3=NC(=CN=C3N2)Br

> <PUBCHEM_CACTVS_TPSA>
41.6

> <PUBCHEM_MONOISOTOPIC_WEIGHT>
287.00581

> <PUBCHEM_TOTAL_CHARGE>
0

> <PUBCHEM_HEAVY_ATOM_COUNT>
17

> <PUBCHEM_ATOM_DEF_STEREO_COUNT>
0

> <PUBCHEM_ATOM_UDEF_STEREO_COUNT>
0

> <PUBCHEM_BOND_DEF_STEREO_COUNT>
0

> <PUBCHEM_BOND_UDEF_STEREO_COUNT>
0

> <PUBCHEM_ISOTOPIC_ATOM_COUNT>
0

> <PUBCHEM_COMPONENT_COUNT>
1

> <PUBCHEM_CACTVS_TAUTO_COUNT>
-1

> <PUBCHEM_COORDINATE_TYPE>
1
5
255

> <PUBCHEM_BONDANNOTATIONS>
10  13  8
11  14  8
12  13  8
12  14  8
16  17  8
2  5  8
2  8  8
3  16  8
3  8  8
4  17  8
4  9  8
5  7  8
6  10  8
6  11  8
7  9  8
8  9  8

$$$$
