11442914
  -OEChem-03202501272D

 56 60  0     0  0  0  0  0  0999 V2000
    4.6783   -1.8432    0.0000 S   0  0  0  0  0  0  0  0  0  0  0  0
    7.5673    3.0302    0.0000 O   0  0  0  0  0  0  0  0  0  0  0  0
    2.0000   -0.5385    0.0000 N   0  0  0  0  0  0  0  0  0  0  0  0
    5.9209    3.5683    0.0000 N   0  0  0  0  0  0  0  0  0  0  0  0
    2.8660    0.9615    0.0000 N   0  0  0  0  0  0  0  0  0  0  0  0
    7.2101    4.7250    0.0000 N   0  0  0  0  0  0  0  0  0  0  0  0
    2.0000   -6.5385    0.0000 N   0  0  0  0  0  0  0  0  0  0  0  0
    4.6783   -0.2338    0.0000 C   0  0  0  0  0  0  0  0  0  0  0  0
    3.7320   -0.5385    0.0000 C   0  0  0  0  0  0  0  0  0  0  0  0
    4.9889    0.7167    0.0000 C   0  0  0  0  0  0  0  0  0  0  0  0
    3.7320   -1.5385    0.0000 C   0  0  0  0  0  0  0  0  0  0  0  0
    5.2619   -1.0385    0.0000 C   0  0  0  0  0  0  0  0  0  0  0  0
    2.8660   -0.0385    0.0000 C   0  0  0  0  0  0  0  0  0  0  0  0
    4.3211    1.4610    0.0000 C   0  0  0  0  0  0  0  0  0  0  0  0
    5.9674    0.9230    0.0000 C   0  0  0  0  0  0  0  0  0  0  0  0
    2.8660   -2.0385    0.0000 C   0  0  0  0  0  0  0  0  0  0  0  0
    5.6103    2.6178    0.0000 C   0  0  0  0  0  0  0  0  0  0  0  0
    4.6318    2.4116    0.0000 C   0  0  0  0  0  0  0  0  0  0  0  0
    6.2781    1.8735    0.0000 C   0  0  0  0  0  0  0  0  0  0  0  0
    2.0000   -1.5385    0.0000 C   0  0  0  0  0  0  0  0  0  0  0  0
    8.1886    4.9313    0.0000 C   0  0  0  0  0  0  0  0  0  0  0  0
    6.8994    3.7745    0.0000 C   0  0  0  0  0  0  0  0  0  0  0  0
    2.8660   -3.0385    0.0000 C   0  0  0  0  0  0  0  0  0  0  0  0
    9.4778    6.0880    0.0000 C   0  0  0  0  0  0  0  0  0  0  0  0
    8.4993    5.8818    0.0000 C   0  0  0  0  0  0  0  0  0  0  0  0
    8.8564    4.1870    0.0000 C   0  0  0  0  0  0  0  0  0  0  0  0
   10.1456    5.3437    0.0000 C   0  0  0  0  0  0  0  0  0  0  0  0
    9.8349    4.3932    0.0000 C   0  0  0  0  0  0  0  0  0  0  0  0
    9.7884    7.0385    0.0000 C   0  0  0  0  0  0  0  0  0  0  0  0
    2.8660   -4.0385    0.0000 C   0  0  0  0  0  0  0  0  0  0  0  0
    2.8660   -5.0385    0.0000 C   0  0  0  0  0  0  0  0  0  0  0  0
    3.7320   -5.5385    0.0000 C   0  0  0  0  0  0  0  0  0  0  0  0
    2.0000   -5.5385    0.0000 C   0  0  0  0  0  0  0  0  0  0  0  0
    3.7320   -6.5385    0.0000 C   0  0  0  0  0  0  0  0  0  0  0  0
    2.8660   -7.0385    0.0000 C   0  0  0  0  0  0  0  0  0  0  0  0
    5.8819   -1.0385    0.0000 H   0  0  0  0  0  0  0  0  0  0  0  0
    3.7144    1.3332    0.0000 H   0  0  0  0  0  0  0  0  0  0  0  0
    6.3815    0.4615    0.0000 H   0  0  0  0  0  0  0  0  0  0  0  0
    4.2177    2.8730    0.0000 H   0  0  0  0  0  0  0  0  0  0  0  0
    6.8848    2.0013    0.0000 H   0  0  0  0  0  0  0  0  0  0  0  0
    1.4631   -1.8485    0.0000 H   0  0  0  0  0  0  0  0  0  0  0  0
    5.5069    4.0298    0.0000 H   0  0  0  0  0  0  0  0  0  0  0  0
    2.3291    1.2715    0.0000 H   0  0  0  0  0  0  0  0  0  0  0  0
    3.4030    1.2715    0.0000 H   0  0  0  0  0  0  0  0  0  0  0  0
    6.7960    5.1865    0.0000 H   0  0  0  0  0  0  0  0  0  0  0  0
    8.0852    6.3432    0.0000 H   0  0  0  0  0  0  0  0  0  0  0  0
    8.6638    3.5976    0.0000 H   0  0  0  0  0  0  0  0  0  0  0  0
   10.7523    5.4716    0.0000 H   0  0  0  0  0  0  0  0  0  0  0  0
   10.2490    3.9317    0.0000 H   0  0  0  0  0  0  0  0  0  0  0  0
   10.3777    6.8459    0.0000 H   0  0  0  0  0  0  0  0  0  0  0  0
    9.9810    7.6278    0.0000 H   0  0  0  0  0  0  0  0  0  0  0  0
    9.1991    7.2311    0.0000 H   0  0  0  0  0  0  0  0  0  0  0  0
    4.2690   -5.2285    0.0000 H   0  0  0  0  0  0  0  0  0  0  0  0
    1.4631   -5.2285    0.0000 H   0  0  0  0  0  0  0  0  0  0  0  0
    4.2690   -6.8485    0.0000 H   0  0  0  0  0  0  0  0  0  0  0  0
    2.8660   -7.6585    0.0000 H   0  0  0  0  0  0  0  0  0  0  0  0
  1 11  1  0  0  0  0
  1 12  1  0  0  0  0
  2 22  2  0  0  0  0
  3 13  2  0  0  0  0
  3 20  1  0  0  0  0
  4 17  1  0  0  0  0
  4 22  1  0  0  0  0
  4 42  1  0  0  0  0
  5 13  1  0  0  0  0
  5 43  1  0  0  0  0
  5 44  1  0  0  0  0
  6 21  1  0  0  0  0
  6 22  1  0  0  0  0
  6 45  1  0  0  0  0
  7 33  1  0  0  0  0
  7 35  2  0  0  0  0
  8  9  1  0  0  0  0
  8 10  1  0  0  0  0
  8 12  2  0  0  0  0
  9 11  2  0  0  0  0
  9 13  1  0  0  0  0
 10 14  2  0  0  0  0
 10 15  1  0  0  0  0
 11 16  1  0  0  0  0
 12 36  1  0  0  0  0
 14 18  1  0  0  0  0
 14 37  1  0  0  0  0
 15 19  2  0  0  0  0
 15 38  1  0  0  0  0
 16 20  2  0  0  0  0
 16 23  1  0  0  0  0
 17 18  2  0  0  0  0
 17 19  1  0  0  0  0
 18 39  1  0  0  0  0
 19 40  1  0  0  0  0
 20 41  1  0  0  0  0
 21 25  1  0  0  0  0
 21 26  2  0  0  0  0
 23 30  3  0  0  0  0
 24 25  2  0  0  0  0
 24 27  1  0  0  0  0
 24 29  1  0  0  0  0
 25 46  1  0  0  0  0
 26 28  1  0  0  0  0
 26 47  1  0  0  0  0
 27 28  2  0  0  0  0
 27 48  1  0  0  0  0
 28 49  1  0  0  0  0
 29 50  1  0  0  0  0
 29 51  1  0  0  0  0
 29 52  1  0  0  0  0
 30 31  1  0  0  0  0
 31 32  1  0  0  0  0
 31 33  2  0  0  0  0
 32 34  2  0  0  0  0
 32 53  1  0  0  0  0
 33 54  1  0  0  0  0
 34 35  1  0  0  0  0
 34 55  1  0  0  0  0
 35 56  1  0  0  0  0
M  END
> <PUBCHEM_COMPOUND_CID>
11442914

> <PUBCHEM_COMPOUND_CANONICALIZED>
1

> <PUBCHEM_CACTVS_COMPLEXITY>
787

> <PUBCHEM_CACTVS_HBOND_ACCEPTOR>
5

> <PUBCHEM_CACTVS_HBOND_DONOR>
3

> <PUBCHEM_CACTVS_ROTATABLE_BOND>
5

> <PUBCHEM_CACTVS_SUBSKEYS>
AAADceB7oABAAAAAAAAAAAAAAAAAASAAAAA8eIEAAAAAAFgB/gAAHgQQAAAADAjFWgS/8dLIEAjsEjZndAiDgKkxCjAI2DA4ZJiIIOLgkZGEIAxolALoyCcQgMAOiAAAQAAAAAAQAACAAAAAAAAAAAAAAA==

> <PUBCHEM_IUPAC_OPENEYE_NAME>
1-[4-[4-amino-7-[2-(3-pyridyl)ethynyl]thieno[3,2-c]pyridin-3-yl]phenyl]-3-(m-tolyl)urea

> <PUBCHEM_IUPAC_CAS_NAME>
1-[4-[4-amino-7-[2-(3-pyridinyl)ethynyl]-3-thieno[3,2-c]pyridinyl]phenyl]-3-(3-methylphenyl)urea

> <PUBCHEM_IUPAC_NAME_MARKUP>
1-[4-[4-amino-7-(2-pyridin-3-ylethynyl)thieno[3,2-c]pyridin-3-yl]phenyl]-3-(3-methylphenyl)urea

> <PUBCHEM_IUPAC_NAME>
1-[4-[4-amino-7-(2-pyridin-3-ylethynyl)thieno[3,2-c]pyridin-3-yl]phenyl]-3-(3-methylphenyl)urea

> <PUBCHEM_IUPAC_SYSTEMATIC_NAME>
1-[4-[4-azanyl-7-(2-pyridin-3-ylethynyl)thieno[3,2-c]pyridin-3-yl]phenyl]-3-(3-methylphenyl)urea

> <PUBCHEM_IUPAC_TRADITIONAL_NAME>
1-[4-[4-amino-7-[2-(3-pyridyl)ethynyl]thieno[3,2-c]pyridin-3-yl]phenyl]-3-(m-tolyl)urea

> <PUBCHEM_IUPAC_INCHI>
InChI=1S/C28H21N5OS/c1-18-4-2-6-23(14-18)33-28(34)32-22-11-9-20(10-12-22)24-17-35-26-21(16-31-27(29)25(24)26)8-7-19-5-3-13-30-15-19/h2-6,9-17H,1H3,(H2,29,31)(H2,32,33,34)

> <PUBCHEM_IUPAC_INCHIKEY>
QJIVDCJIPGAKQZ-UHFFFAOYSA-N

> <PUBCHEM_XLOGP3_AA>
5

> <PUBCHEM_EXACT_MASS>
475.14668148

> <PUBCHEM_MOLECULAR_FORMULA>
C28H21N5OS

> <PUBCHEM_MOLECULAR_WEIGHT>
475.6

> <PUBCHEM_SMILES>
CC1=CC(=CC=C1)NC(=O)NC2=CC=C(C=C2)C3=CSC4=C3C(=NC=C4C#CC5=CN=CC=C5)N

> <PUBCHEM_OPENEYE_CAN_SMILES>
CC1=CC(=CC=C1)NC(=O)NC2=CC=C(C=C2)C3=CSC4=C3C(=NC=C4C#CC5=CN=CC=C5)N

> <PUBCHEM_OPENEYE_ISO_SMILES>
CC1=CC(=CC=C1)NC(=O)NC2=CC=C(C=C2)C3=CSC4=C3C(=NC=C4C#CC5=CN=CC=C5)N

> <PUBCHEM_CACTVS_TPSA>
121

> <PUBCHEM_MONOISOTOPIC_WEIGHT>
475.14668148

> <PUBCHEM_TOTAL_CHARGE>
0

> <PUBCHEM_HEAVY_ATOM_COUNT>
35

> <PUBCHEM_ATOM_DEF_STEREO_COUNT>
0

> <PUBCHEM_ATOM_UDEF_STEREO_COUNT>
0

> <PUBCHEM_BOND_DEF_STEREO_COUNT>
0

> <PUBCHEM_BOND_UDEF_STEREO_COUNT>
0

> <PUBCHEM_ISOTOPIC_ATOM_COUNT>
0

> <PUBCHEM_COMPONENT_COUNT>
1

> <PUBCHEM_CACTVS_TAUTO_COUNT>
-1

> <PUBCHEM_COORDINATE_TYPE>
1
5
255

> <PUBCHEM_BONDANNOTATIONS>
1  11  8
1  12  8
10  14  8
10  15  8
11  16  8
14  18  8
15  19  8
16  20  8
17  18  8
17  19  8
21  25  8
21  26  8
24  25  8
24  27  8
26  28  8
27  28  8
3  13  8
3  20  8
31  32  8
31  33  8
32  34  8
34  35  8
7  33  8
7  35  8
8  12  8
8  9  8
9  11  8
9  13  8

$$$$
