136027063
  -OEChem-03202503122D

 33 35  0     0  0  0  0  0  0999 V2000
    7.2125    3.6092    0.0000 O   0  0  0  0  0  0  0  0  0  0  0  0
    3.7320   -0.4254    0.0000 O   0  0  0  0  0  0  0  0  0  0  0  0
    5.4641   -0.4254    0.0000 N   0  0  0  0  0  0  0  0  0  0  0  0
    4.5981   -1.9254    0.0000 N   0  0  0  0  0  0  0  0  0  0  0  0
    3.7320   -3.4254    0.0000 N   0  0  0  0  0  0  0  0  0  0  0  0
    2.0000   -2.4254    0.0000 N   0  0  0  0  0  0  0  0  0  0  0  0
    6.3301    1.0746    0.0000 C   0  0  0  0  0  0  0  0  0  0  0  0
    6.3301    2.0746    0.0000 C   0  0  0  0  0  0  0  0  0  0  0  0
    5.4641    0.5746    0.0000 C   0  0  0  0  0  0  0  0  0  0  0  0
    7.2241    0.5399    0.0000 C   0  0  0  0  0  0  0  0  0  0  0  0
    5.4641    2.5746    0.0000 C   0  0  0  0  0  0  0  0  0  0  0  0
    7.2241    2.6093    0.0000 C   0  0  0  0  0  0  0  0  0  0  0  0
    4.5981    1.0746    0.0000 C   0  0  0  0  0  0  0  0  0  0  0  0
    4.5981    2.0746    0.0000 C   0  0  0  0  0  0  0  0  0  0  0  0
    8.1301    1.0538    0.0000 C   0  0  0  0  0  0  0  0  0  0  0  0
    8.1301    2.0954    0.0000 C   0  0  0  0  0  0  0  0  0  0  0  0
    4.5981   -0.9254    0.0000 C   0  0  0  0  0  0  0  0  0  0  0  0
    3.7320   -2.4254    0.0000 C   0  0  0  0  0  0  0  0  0  0  0  0
    2.8660   -1.9254    0.0000 C   0  0  0  0  0  0  0  0  0  0  0  0
    2.8660   -3.9254    0.0000 C   0  0  0  0  0  0  0  0  0  0  0  0
    2.0000   -3.4254    0.0000 C   0  0  0  0  0  0  0  0  0  0  0  0
    7.2169   -0.0800    0.0000 H   0  0  0  0  0  0  0  0  0  0  0  0
    5.4641    3.1946    0.0000 H   0  0  0  0  0  0  0  0  0  0  0  0
    4.0611    0.7646    0.0000 H   0  0  0  0  0  0  0  0  0  0  0  0
    4.0611    2.3846    0.0000 H   0  0  0  0  0  0  0  0  0  0  0  0
    6.0010   -0.7354    0.0000 H   0  0  0  0  0  0  0  0  0  0  0  0
    8.6659    0.7417    0.0000 H   0  0  0  0  0  0  0  0  0  0  0  0
    8.6659    2.4075    0.0000 H   0  0  0  0  0  0  0  0  0  0  0  0
    5.1350   -2.2354    0.0000 H   0  0  0  0  0  0  0  0  0  0  0  0
    7.7458    3.9254    0.0000 H   0  0  0  0  0  0  0  0  0  0  0  0
    2.8660   -1.3054    0.0000 H   0  0  0  0  0  0  0  0  0  0  0  0
    2.8660   -4.5454    0.0000 H   0  0  0  0  0  0  0  0  0  0  0  0
    1.4631   -3.7354    0.0000 H   0  0  0  0  0  0  0  0  0  0  0  0
  1 12  1  0  0  0  0
  1 30  1  0  0  0  0
  2 17  2  0  0  0  0
  3  9  1  0  0  0  0
  3 17  1  0  0  0  0
  3 26  1  0  0  0  0
  4 17  1  0  0  0  0
  4 18  1  0  0  0  0
  4 29  1  0  0  0  0
  5 18  2  0  0  0  0
  5 20  1  0  0  0  0
  6 19  2  0  0  0  0
  6 21  1  0  0  0  0
  7  8  2  0  0  0  0
  7  9  1  0  0  0  0
  7 10  1  0  0  0  0
  8 11  1  0  0  0  0
  8 12  1  0  0  0  0
  9 13  2  0  0  0  0
 10 15  2  0  0  0  0
 10 22  1  0  0  0  0
 11 14  2  0  0  0  0
 11 23  1  0  0  0  0
 12 16  2  0  0  0  0
 13 14  1  0  0  0  0
 13 24  1  0  0  0  0
 14 25  1  0  0  0  0
 15 16  1  0  0  0  0
 15 27  1  0  0  0  0
 16 28  1  0  0  0  0
 18 19  1  0  0  0  0
 19 31  1  0  0  0  0
 20 21  2  0  0  0  0
 20 32  1  0  0  0  0
 21 33  1  0  0  0  0
M  END
> <PUBCHEM_COMPOUND_CID>
136027063

> <PUBCHEM_COMPOUND_CANONICALIZED>
1

> <PUBCHEM_CACTVS_COMPLEXITY>
366

> <PUBCHEM_CACTVS_HBOND_ACCEPTOR>
4

> <PUBCHEM_CACTVS_HBOND_DONOR>
3

> <PUBCHEM_CACTVS_ROTATABLE_BOND>
2

> <PUBCHEM_CACTVS_SUBSKEYS>
AAADccBzsAAAAAAAAAAAAAAAAAAAAAAAAAA8YIAAAAAAAADB1AAAHgAQCAAADAzBmgQ99tLIEgCoAjZndACCgC0xMiAJyAAefIiIZmLCkZOUcAhs1RPI2CewwLAOgAABQAAaAAAAAAKAADQAAAAAAAAAAA==

> <PUBCHEM_IUPAC_OPENEYE_NAME>
1-(5-hydroxy-1-naphthyl)-3-pyrazin-2-yl-urea

> <PUBCHEM_IUPAC_CAS_NAME>
1-(5-hydroxy-1-naphthalenyl)-3-(2-pyrazinyl)urea

> <PUBCHEM_IUPAC_NAME_MARKUP>
1-(5-hydroxynaphthalen-1-yl)-3-pyrazin-2-ylurea

> <PUBCHEM_IUPAC_NAME>
1-(5-hydroxynaphthalen-1-yl)-3-pyrazin-2-ylurea

> <PUBCHEM_IUPAC_SYSTEMATIC_NAME>
1-(5-oxidanylnaphthalen-1-yl)-3-pyrazin-2-yl-urea

> <PUBCHEM_IUPAC_TRADITIONAL_NAME>
1-(5-hydroxy-1-naphthyl)-3-pyrazin-2-yl-urea

> <PUBCHEM_IUPAC_INCHI>
InChI=1S/C15H12N4O2/c20-13-6-2-3-10-11(13)4-1-5-12(10)18-15(21)19-14-9-16-7-8-17-14/h1-9,20H,(H2,17,18,19,21)

> <PUBCHEM_IUPAC_INCHIKEY>
YGKFZWJWKPZPQM-UHFFFAOYSA-N

> <PUBCHEM_XLOGP3_AA>
1.6

> <PUBCHEM_EXACT_MASS>
280.09602564

> <PUBCHEM_MOLECULAR_FORMULA>
C15H12N4O2

> <PUBCHEM_MOLECULAR_WEIGHT>
280.28

> <PUBCHEM_SMILES>
C1=CC2=C(C=CC=C2O)C(=C1)NC(=O)NC3=NC=CN=C3

> <PUBCHEM_OPENEYE_CAN_SMILES>
C1=CC2=C(C=CC=C2O)C(=C1)NC(=O)NC3=NC=CN=C3

> <PUBCHEM_OPENEYE_ISO_SMILES>
C1=CC2=C(C=CC=C2O)C(=C1)NC(=O)NC3=NC=CN=C3

> <PUBCHEM_CACTVS_TPSA>
87.1

> <PUBCHEM_MONOISOTOPIC_WEIGHT>
280.09602564

> <PUBCHEM_TOTAL_CHARGE>
0

> <PUBCHEM_HEAVY_ATOM_COUNT>
21

> <PUBCHEM_ATOM_DEF_STEREO_COUNT>
0

> <PUBCHEM_ATOM_UDEF_STEREO_COUNT>
0

> <PUBCHEM_BOND_DEF_STEREO_COUNT>
0

> <PUBCHEM_BOND_UDEF_STEREO_COUNT>
0

> <PUBCHEM_ISOTOPIC_ATOM_COUNT>
0

> <PUBCHEM_COMPONENT_COUNT>
1

> <PUBCHEM_CACTVS_TAUTO_COUNT>
-1

> <PUBCHEM_COORDINATE_TYPE>
1
5
255

> <PUBCHEM_BONDANNOTATIONS>
10  15  8
11  14  8
12  16  8
13  14  8
15  16  8
18  19  8
20  21  8
5  18  8
5  20  8
6  19  8
6  21  8
7  10  8
7  8  8
7  9  8
8  11  8
8  12  8
9  13  8

$$$$
