25164469
  -OEChem-03202500262D

 36 39  0     0  0  0  0  0  0999 V2000
    5.1646    0.1517    0.0000 N   0  0  0  0  0  0  0  0  0  0  0  0
   10.2916   -1.9894    0.0000 N   0  0  0  0  0  0  0  0  0  0  0  0
    6.6428    0.8098    0.0000 N   0  0  0  0  0  0  0  0  0  0  0  0
    5.6646    1.0177    0.0000 N   0  0  0  0  0  0  0  0  0  0  0  0
   10.8752   -1.1847    0.0000 N   0  0  0  0  0  0  0  0  0  0  0  0
   10.6022    0.5706    0.0000 N   0  0  0  0  0  0  0  0  0  0  0  0
    7.6133   -0.6847    0.0000 C   0  0  0  0  0  0  0  0  0  0  0  0
    9.3454   -0.6847    0.0000 C   0  0  0  0  0  0  0  0  0  0  0  0
    9.3454   -1.6847    0.0000 C   0  0  0  0  0  0  0  0  0  0  0  0
    6.7473   -0.1847    0.0000 C   0  0  0  0  0  0  0  0  0  0  0  0
    8.4793   -0.1847    0.0000 C   0  0  0  0  0  0  0  0  0  0  0  0
    4.1701    0.0472    0.0000 C   0  0  0  0  0  0  0  0  0  0  0  0
    7.6133   -1.6847    0.0000 C   0  0  0  0  0  0  0  0  0  0  0  0
    5.8338   -0.5914    0.0000 C   0  0  0  0  0  0  0  0  0  0  0  0
    8.4793   -2.1847    0.0000 C   0  0  0  0  0  0  0  0  0  0  0  0
   10.2916   -0.3800    0.0000 C   0  0  0  0  0  0  0  0  0  0  0  0
    3.5823    0.8562    0.0000 C   0  0  0  0  0  0  0  0  0  0  0  0
    3.9890    1.7697    0.0000 C   0  0  0  0  0  0  0  0  0  0  0  0
    2.5878    0.7517    0.0000 C   0  0  0  0  0  0  0  0  0  0  0  0
    3.4013    2.5788    0.0000 C   0  0  0  0  0  0  0  0  0  0  0  0
    2.0000    1.5607    0.0000 C   0  0  0  0  0  0  0  0  0  0  0  0
    2.4067    2.4742    0.0000 C   0  0  0  0  0  0  0  0  0  0  0  0
    8.4793    0.4353    0.0000 H   0  0  0  0  0  0  0  0  0  0  0  0
    3.6128   -0.2246    0.0000 H   0  0  0  0  0  0  0  0  0  0  0  0
    4.3410   -0.5488    0.0000 H   0  0  0  0  0  0  0  0  0  0  0  0
    7.0764   -1.9947    0.0000 H   0  0  0  0  0  0  0  0  0  0  0  0
    5.7048   -1.1979    0.0000 H   0  0  0  0  0  0  0  0  0  0  0  0
    8.4793   -2.8047    0.0000 H   0  0  0  0  0  0  0  0  0  0  0  0
   10.4842   -2.5788    0.0000 H   0  0  0  0  0  0  0  0  0  0  0  0
    4.6056    1.8346    0.0000 H   0  0  0  0  0  0  0  0  0  0  0  0
    2.3356    0.1853    0.0000 H   0  0  0  0  0  0  0  0  0  0  0  0
    3.6534    3.1452    0.0000 H   0  0  0  0  0  0  0  0  0  0  0  0
    1.3834    1.4959    0.0000 H   0  0  0  0  0  0  0  0  0  0  0  0
   11.2089    0.6984    0.0000 H   0  0  0  0  0  0  0  0  0  0  0  0
   10.1882    1.0320    0.0000 H   0  0  0  0  0  0  0  0  0  0  0  0
    2.0423    2.9758    0.0000 H   0  0  0  0  0  0  0  0  0  0  0  0
  1  4  1  0  0  0  0
  1 12  1  0  0  0  0
  1 14  1  0  0  0  0
  2  5  1  0  0  0  0
  2  9  1  0  0  0  0
  2 29  1  0  0  0  0
  3  4  2  0  0  0  0
  3 10  1  0  0  0  0
  5 16  2  0  0  0  0
  6 16  1  0  0  0  0
  6 34  1  0  0  0  0
  6 35  1  0  0  0  0
  7 10  1  0  0  0  0
  7 11  2  0  0  0  0
  7 13  1  0  0  0  0
  8  9  2  0  0  0  0
  8 11  1  0  0  0  0
  8 16  1  0  0  0  0
  9 15  1  0  0  0  0
 10 14  2  0  0  0  0
 11 23  1  0  0  0  0
 12 17  1  0  0  0  0
 12 24  1  0  0  0  0
 12 25  1  0  0  0  0
 13 15  2  0  0  0  0
 13 26  1  0  0  0  0
 14 27  1  0  0  0  0
 15 28  1  0  0  0  0
 17 18  2  0  0  0  0
 17 19  1  0  0  0  0
 18 20  1  0  0  0  0
 18 30  1  0  0  0  0
 19 21  2  0  0  0  0
 19 31  1  0  0  0  0
 20 22  2  0  0  0  0
 20 32  1  0  0  0  0
 21 22  1  0  0  0  0
 21 33  1  0  0  0  0
 22 36  1  0  0  0  0
M  END
> <PUBCHEM_COMPOUND_CID>
25164469

> <PUBCHEM_COMPOUND_CANONICALIZED>
1

> <PUBCHEM_CACTVS_COMPLEXITY>
372

> <PUBCHEM_CACTVS_HBOND_ACCEPTOR>
4

> <PUBCHEM_CACTVS_HBOND_DONOR>
2

> <PUBCHEM_CACTVS_ROTATABLE_BOND>
3

> <PUBCHEM_CACTVS_SUBSKEYS>
AAADccB7gAAAAAAAAAAAAAAAAAAAAWLAAAAwYAAAAAAAAFgB/AAAHAAYAAAADAjBHgQ98PJrAACiAzZnZACSBAYxkgAc+SA4dJgIYKLA0dGUpAhwmADIyAcQgMAOCAACAAACAAAQAAQAAAQAAAAAAAAAAA==

> <PUBCHEM_IUPAC_OPENEYE_NAME>
5-(1-benzyltriazol-4-yl)-1H-indazol-3-amine

> <PUBCHEM_IUPAC_CAS_NAME>
5-[1-(phenylmethyl)-4-triazolyl]-1H-indazol-3-amine

> <PUBCHEM_IUPAC_NAME_MARKUP>
5-(1-benzyltriazol-4-yl)-1<I>H</I>-indazol-3-amine

> <PUBCHEM_IUPAC_NAME>
5-(1-benzyltriazol-4-yl)-1H-indazol-3-amine

> <PUBCHEM_IUPAC_SYSTEMATIC_NAME>
5-[1-(phenylmethyl)-1,2,3-triazol-4-yl]-1H-indazol-3-amine

> <PUBCHEM_IUPAC_TRADITIONAL_NAME>
[5-(1-benzyltriazol-4-yl)-1H-indazol-3-yl]amine

> <PUBCHEM_IUPAC_INCHI>
InChI=1S/C16H14N6/c17-16-13-8-12(6-7-14(13)18-20-16)15-10-22(21-19-15)9-11-4-2-1-3-5-11/h1-8,10H,9H2,(H3,17,18,20)

> <PUBCHEM_IUPAC_INCHIKEY>
VBNPWXWJZJNXEY-UHFFFAOYSA-N

> <PUBCHEM_XLOGP3_AA>
2.2

> <PUBCHEM_EXACT_MASS>
290.12799447

> <PUBCHEM_MOLECULAR_FORMULA>
C16H14N6

> <PUBCHEM_MOLECULAR_WEIGHT>
290.32

> <PUBCHEM_SMILES>
C1=CC=C(C=C1)CN2C=C(N=N2)C3=CC4=C(C=C3)NN=C4N

> <PUBCHEM_OPENEYE_CAN_SMILES>
C1=CC=C(C=C1)CN2C=C(N=N2)C3=CC4=C(C=C3)NN=C4N

> <PUBCHEM_OPENEYE_ISO_SMILES>
C1=CC=C(C=C1)CN2C=C(N=N2)C3=CC4=C(C=C3)NN=C4N

> <PUBCHEM_CACTVS_TPSA>
85.4

> <PUBCHEM_MONOISOTOPIC_WEIGHT>
290.12799447

> <PUBCHEM_TOTAL_CHARGE>
0

> <PUBCHEM_HEAVY_ATOM_COUNT>
22

> <PUBCHEM_ATOM_DEF_STEREO_COUNT>
0

> <PUBCHEM_ATOM_UDEF_STEREO_COUNT>
0

> <PUBCHEM_BOND_DEF_STEREO_COUNT>
0

> <PUBCHEM_BOND_UDEF_STEREO_COUNT>
0

> <PUBCHEM_ISOTOPIC_ATOM_COUNT>
0

> <PUBCHEM_COMPONENT_COUNT>
1

> <PUBCHEM_CACTVS_TAUTO_COUNT>
-1

> <PUBCHEM_COORDINATE_TYPE>
1
5
255

> <PUBCHEM_BONDANNOTATIONS>
1  14  8
1  4  8
10  14  8
13  15  8
17  18  8
17  19  8
18  20  8
19  21  8
2  5  8
2  9  8
20  22  8
21  22  8
3  10  8
3  4  8
5  16  8
7  11  8
7  13  8
8  11  8
8  16  8
8  9  8
9  15  8

$$$$
