16105510
  -OEChem-03202506022D

 40 45  0     0  0  0  0  0  0999 V2000
    6.3326    1.5853    0.0000 O   0  0  0  0  0  0  0  0  0  0  0  0
    6.3326   -1.9252    0.0000 O   0  0  0  0  0  0  0  0  0  0  0  0
    2.6067   -1.3371    0.0000 N   0  0  0  0  0  0  0  0  0  0  0  0
    6.6056   -0.1700    0.0000 N   0  0  0  0  0  0  0  0  0  0  0  0
    3.3437    0.3300    0.0000 C   0  0  0  0  0  0  0  0  0  0  0  0
    4.2097    0.8300    0.0000 C   0  0  0  0  0  0  0  0  0  0  0  0
    3.3437   -0.6700    0.0000 C   0  0  0  0  0  0  0  0  0  0  0  0
    4.2097   -1.1700    0.0000 C   0  0  0  0  0  0  0  0  0  0  0  0
    2.4337    0.8368    0.0000 C   0  0  0  0  0  0  0  0  0  0  0  0
    5.0757    0.3300    0.0000 C   0  0  0  0  0  0  0  0  0  0  0  0
    5.0757   -0.6700    0.0000 C   0  0  0  0  0  0  0  0  0  0  0  0
    2.4257    1.8784    0.0000 C   0  0  0  0  0  0  0  0  0  0  0  0
    4.2258    1.8715    0.0000 C   0  0  0  0  0  0  0  0  0  0  0  0
    3.3277    2.3993    0.0000 C   0  0  0  0  0  0  0  0  0  0  0  0
    4.0005   -2.1418    0.0000 C   0  0  0  0  0  0  0  0  0  0  0  0
    3.0118   -2.2449    0.0000 C   0  0  0  0  0  0  0  0  0  0  0  0
    6.0220    0.6347    0.0000 C   0  0  0  0  0  0  0  0  0  0  0  0
    6.0220   -0.9747    0.0000 C   0  0  0  0  0  0  0  0  0  0  0  0
    5.1777    2.3921    0.0000 C   0  0  0  0  0  0  0  0  0  0  0  0
    3.3194    3.4842    0.0000 C   0  0  0  0  0  0  0  0  0  0  0  0
    4.6213   -2.9706    0.0000 C   0  0  0  0  0  0  0  0  0  0  0  0
    2.5753   -3.1838    0.0000 C   0  0  0  0  0  0  0  0  0  0  0  0
    5.1944    3.4770    0.0000 C   0  0  0  0  0  0  0  0  0  0  0  0
    4.2590    4.0267    0.0000 C   0  0  0  0  0  0  0  0  0  0  0  0
    4.2066   -3.9194    0.0000 C   0  0  0  0  0  0  0  0  0  0  0  0
    3.1767   -4.0267    0.0000 C   0  0  0  0  0  0  0  0  0  0  0  0
    1.8220    0.9382    0.0000 H   0  0  0  0  0  0  0  0  0  0  0  0
    2.2291    0.2516    0.0000 H   0  0  0  0  0  0  0  0  0  0  0  0
    2.2121    2.4605    0.0000 H   0  0  0  0  0  0  0  0  0  0  0  0
    1.8156    1.7676    0.0000 H   0  0  0  0  0  0  0  0  0  0  0  0
    2.0000   -1.2092    0.0000 H   0  0  0  0  0  0  0  0  0  0  0  0
    5.7086    2.0718    0.0000 H   0  0  0  0  0  0  0  0  0  0  0  0
    7.2256   -0.1700    0.0000 H   0  0  0  0  0  0  0  0  0  0  0  0
    2.7812    3.7922    0.0000 H   0  0  0  0  0  0  0  0  0  0  0  0
    5.2371   -2.8992    0.0000 H   0  0  0  0  0  0  0  0  0  0  0  0
    1.9579   -3.2410    0.0000 H   0  0  0  0  0  0  0  0  0  0  0  0
    5.7349    3.7808    0.0000 H   0  0  0  0  0  0  0  0  0  0  0  0
    4.2614    4.6467    0.0000 H   0  0  0  0  0  0  0  0  0  0  0  0
    4.5725   -4.4199    0.0000 H   0  0  0  0  0  0  0  0  0  0  0  0
    2.9219   -4.5919    0.0000 H   0  0  0  0  0  0  0  0  0  0  0  0
  1 17  2  0  0  0  0
  2 18  2  0  0  0  0
  3  7  1  0  0  0  0
  3 16  1  0  0  0  0
  3 31  1  0  0  0  0
  4 17  1  0  0  0  0
  4 18  1  0  0  0  0
  4 33  1  0  0  0  0
  5  6  2  0  0  0  0
  5  7  1  0  0  0  0
  5  9  1  0  0  0  0
  6 10  1  0  0  0  0
  6 13  1  0  0  0  0
  7  8  2  0  0  0  0
  8 11  1  0  0  0  0
  8 15  1  0  0  0  0
  9 12  1  0  0  0  0
  9 27  1  0  0  0  0
  9 28  1  0  0  0  0
 10 11  2  0  0  0  0
 10 17  1  0  0  0  0
 11 18  1  0  0  0  0
 12 14  1  0  0  0  0
 12 29  1  0  0  0  0
 12 30  1  0  0  0  0
 13 14  1  0  0  0  0
 13 19  2  0  0  0  0
 14 20  2  0  0  0  0
 15 16  1  0  0  0  0
 15 21  2  0  0  0  0
 16 22  2  0  0  0  0
 19 23  1  0  0  0  0
 19 32  1  0  0  0  0
 20 24  1  0  0  0  0
 20 34  1  0  0  0  0
 21 25  1  0  0  0  0
 21 35  1  0  0  0  0
 22 26  1  0  0  0  0
 22 36  1  0  0  0  0
 23 24  2  0  0  0  0
 23 37  1  0  0  0  0
 24 38  1  0  0  0  0
 25 26  2  0  0  0  0
 25 39  1  0  0  0  0
 26 40  1  0  0  0  0
M  END
> <PUBCHEM_COMPOUND_CID>
16105510

> <PUBCHEM_COMPOUND_CANONICALIZED>
1

> <PUBCHEM_CACTVS_COMPLEXITY>
634

> <PUBCHEM_CACTVS_HBOND_ACCEPTOR>
2

> <PUBCHEM_CACTVS_HBOND_DONOR>
2

> <PUBCHEM_CACTVS_ROTATABLE_BOND>
0

> <PUBCHEM_CACTVS_SUBSKEYS>
AAADccB7MAAAAAAAAAAAAAAAAAAAAWLAAAAwYMGAAAAAAFjB/AAAHgAQAAAADAiBngAwwPLJkACoAyVyVACCgCAlAiAImSEwZNgIIPLAlZGEIQhglCDIyQcdicCeyAACQAASAACQAASAACQAAAAAAAAAAA==

> <PUBCHEM_IUPAC_OPENEYE_NAME>
3,13-diazahexacyclo[14.8.0.02,10.04,9.011,15.017,22]tetracosa-1(16),2(10),4,6,8,11(15),17,19,21-nonaene-12,14-dione

> <PUBCHEM_IUPAC_CAS_NAME>
3,13-diazahexacyclo[14.8.0.02,10.04,9.011,15.017,22]tetracosa-1(16),2(10),4,6,8,11(15),17,19,21-nonaene-12,14-dione

> <PUBCHEM_IUPAC_NAME_MARKUP>
3,13-diazahexacyclo[14.8.0.0<SUP>2,10</SUP>.0<SUP>4,9</SUP>.0<SUP>11,15</SUP>.0<SUP>17,22</SUP>]tetracosa-1(16),2(10),4,6,8,11(15),17,19,21-nonaene-12,14-dione

> <PUBCHEM_IUPAC_NAME>
3,13-diazahexacyclo[14.8.0.02,10.04,9.011,15.017,22]tetracosa-1(16),2(10),4,6,8,11(15),17,19,21-nonaene-12,14-dione

> <PUBCHEM_IUPAC_SYSTEMATIC_NAME>
3,13-diazahexacyclo[14.8.0.02,10.04,9.011,15.017,22]tetracosa-1(16),2(10),4,6,8,11(15),17,19,21-nonaene-12,14-dione

> <PUBCHEM_IUPAC_TRADITIONAL_NAME>
3,13-diazahexacyclo[14.8.0.02,10.04,9.011,15.017,22]tetracosa-1(16),2(10),4,6,8,11(15),17,19,21-nonaene-12,14-quinone

> <PUBCHEM_IUPAC_INCHI>
InChI=1S/C22H14N2O2/c25-21-18-16-12-6-2-1-5-11(12)9-10-14(16)20-17(19(18)22(26)24-21)13-7-3-4-8-15(13)23-20/h1-8,23H,9-10H2,(H,24,25,26)

> <PUBCHEM_IUPAC_INCHIKEY>
NHDDTLMPCVOXFH-UHFFFAOYSA-N

> <PUBCHEM_XLOGP3_AA>
4.1

> <PUBCHEM_EXACT_MASS>
338.105527694

> <PUBCHEM_MOLECULAR_FORMULA>
C22H14N2O2

> <PUBCHEM_MOLECULAR_WEIGHT>
338.4

> <PUBCHEM_SMILES>
C1CC2=C(C3=CC=CC=C31)C4=C(C5=C2NC6=CC=CC=C65)C(=O)NC4=O

> <PUBCHEM_OPENEYE_CAN_SMILES>
C1CC2=C(C3=CC=CC=C31)C4=C(C5=C2NC6=CC=CC=C65)C(=O)NC4=O

> <PUBCHEM_OPENEYE_ISO_SMILES>
C1CC2=C(C3=CC=CC=C31)C4=C(C5=C2NC6=CC=CC=C65)C(=O)NC4=O

> <PUBCHEM_CACTVS_TPSA>
62

> <PUBCHEM_MONOISOTOPIC_WEIGHT>
338.105527694

> <PUBCHEM_TOTAL_CHARGE>
0

> <PUBCHEM_HEAVY_ATOM_COUNT>
26

> <PUBCHEM_ATOM_DEF_STEREO_COUNT>
0

> <PUBCHEM_ATOM_UDEF_STEREO_COUNT>
0

> <PUBCHEM_BOND_DEF_STEREO_COUNT>
0

> <PUBCHEM_BOND_UDEF_STEREO_COUNT>
0

> <PUBCHEM_ISOTOPIC_ATOM_COUNT>
0

> <PUBCHEM_COMPONENT_COUNT>
1

> <PUBCHEM_CACTVS_TAUTO_COUNT>
-1

> <PUBCHEM_COORDINATE_TYPE>
1
5
255

> <PUBCHEM_BONDANNOTATIONS>
10  11  8
13  14  8
13  19  8
14  20  8
15  16  8
15  21  8
16  22  8
19  23  8
20  24  8
21  25  8
22  26  8
23  24  8
25  26  8
3  16  8
3  7  8
5  6  8
5  7  8
6  10  8
7  8  8
8  11  8
8  15  8

$$$$
