16046126
  -OEChem-03202504482D

 51 56  0     1  0  0  0  0  0999 V2000
    3.4830   -1.9810    0.0000 O   0  0  0  0  0  0  0  0  0  0  0  0
    8.3514    1.1916    0.0000 O   0  0  0  0  0  0  0  0  0  0  0  0
    3.7841    3.0089    0.0000 O   0  0  0  0  0  0  0  0  0  0  0  0
    5.8927   -2.1280    0.0000 N   0  0  3  0  0  0  0  0  0  0  0  0
    6.7592    0.4630    0.0000 N   0  0  0  0  0  0  0  0  0  0  0  0
    6.0965    1.2119    0.0000 N   0  0  0  0  0  0  0  0  0  0  0  0
    4.6501    0.5089    0.0000 N   0  0  0  0  0  0  0  0  0  0  0  0
    2.9180    1.5089    0.0000 N   0  0  0  0  0  0  0  0  0  0  0  0
    5.7886   -3.1244    0.0000 C   0  0  1  0  0  0  0  0  0  0  0  0
    4.1457   -2.7298    0.0000 C   0  0  1  0  0  0  0  0  0  0  0  0
    4.8414   -3.4507    0.0000 C   0  0  0  0  0  0  0  0  0  0  0  0
    4.8945   -2.0671    0.0000 C   0  0  0  0  0  0  0  0  0  0  0  0
    6.6415   -1.4653    0.0000 C   0  0  0  0  0  0  0  0  0  0  0  0
    6.5714   -3.7466    0.0000 C   0  0  0  0  0  0  0  0  0  0  0  0
    6.4420   -0.4854    0.0000 C   0  0  0  0  0  0  0  0  0  0  0  0
    3.8001   -1.0326    0.0000 C   0  0  0  0  0  0  0  0  0  0  0  0
    5.8970    2.1917    0.0000 C   0  0  0  0  0  0  0  0  0  0  0  0
    7.3550    1.2763    0.0000 C   0  0  0  0  0  0  0  0  0  0  0  0
    6.9050    2.1784    0.0000 C   0  0  0  0  0  0  0  0  0  0  0  0
    3.7841    0.0089    0.0000 C   0  0  0  0  0  0  0  0  0  0  0  0
    4.9672    2.4573    0.0000 C   0  0  0  0  0  0  0  0  0  0  0  0
    2.9021   -1.5604    0.0000 C   0  0  0  0  0  0  0  0  0  0  0  0
    4.6501    1.5089    0.0000 C   0  0  0  0  0  0  0  0  0  0  0  0
    2.9180    0.5089    0.0000 C   0  0  0  0  0  0  0  0  0  0  0  0
    6.9390    3.1648    0.0000 C   0  0  0  0  0  0  0  0  0  0  0  0
    5.2128    3.4133    0.0000 C   0  0  0  0  0  0  0  0  0  0  0  0
    3.7841    2.0089    0.0000 C   0  0  0  0  0  0  0  0  0  0  0  0
    2.0000   -1.0395    0.0000 C   0  0  0  0  0  0  0  0  0  0  0  0
    6.1418    3.7466    0.0000 C   0  0  0  0  0  0  0  0  0  0  0  0
    2.0080    0.0021    0.0000 C   0  0  0  0  0  0  0  0  0  0  0  0
    6.3602   -2.8844    0.0000 H   0  0  0  0  0  0  0  0  0  0  0  0
    3.5215   -3.3068    0.0000 H   0  0  0  0  0  0  0  0  0  0  0  0
    4.3376   -3.8121    0.0000 H   0  0  0  0  0  0  0  0  0  0  0  0
    5.1261   -4.0014    0.0000 H   0  0  0  0  0  0  0  0  0  0  0  0
    5.0912   -1.4791    0.0000 H   0  0  0  0  0  0  0  0  0  0  0  0
    4.3775   -1.7250    0.0000 H   0  0  0  0  0  0  0  0  0  0  0  0
    6.9656   -1.9939    0.0000 H   0  0  0  0  0  0  0  0  0  0  0  0
    7.2184   -1.2380    0.0000 H   0  0  0  0  0  0  0  0  0  0  0  0
    6.1856   -4.2320    0.0000 H   0  0  0  0  0  0  0  0  0  0  0  0
    7.0567   -4.1324    0.0000 H   0  0  0  0  0  0  0  0  0  0  0  0
    6.9572   -3.2612    0.0000 H   0  0  0  0  0  0  0  0  0  0  0  0
    5.9568   -0.0995    0.0000 H   0  0  0  0  0  0  0  0  0  0  0  0
    7.0609   -0.5231    0.0000 H   0  0  0  0  0  0  0  0  0  0  0  0
    5.5416    0.9351    0.0000 H   0  0  0  0  0  0  0  0  0  0  0  0
    2.9045   -2.1803    0.0000 H   0  0  0  0  0  0  0  0  0  0  0  0
    7.4965    3.4361    0.0000 H   0  0  0  0  0  0  0  0  0  0  0  0
    4.7544    3.8308    0.0000 H   0  0  0  0  0  0  0  0  0  0  0  0
    6.2301    4.3603    0.0000 H   0  0  0  0  0  0  0  0  0  0  0  0
    1.4619   -1.3475    0.0000 H   0  0  0  0  0  0  0  0  0  0  0  0
    2.3811    1.8189    0.0000 H   0  0  0  0  0  0  0  0  0  0  0  0
    1.4747    0.3182    0.0000 H   0  0  0  0  0  0  0  0  0  0  0  0
  1 10  1  0  0  0  0
  1 16  1  0  0  0  0
  2 18  2  0  0  0  0
  3 27  2  0  0  0  0
  4  9  1  0  0  0  0
  4 12  1  0  0  0  0
  4 13  1  0  0  0  0
  5  6  1  0  0  0  0
  5 15  1  0  0  0  0
  5 18  1  0  0  0  0
  6 17  1  0  0  0  0
  6 44  1  0  0  0  0
  7 20  1  0  0  0  0
  7 23  2  0  0  0  0
  8 24  1  0  0  0  0
  8 27  1  0  0  0  0
  8 50  1  0  0  0  0
  9 11  1  0  0  0  0
  9 14  1  6  0  0  0
  9 31  1  0  0  0  0
 10 11  1  0  0  0  0
 10 12  1  0  0  0  0
 10 32  1  1  0  0  0
 11 33  1  0  0  0  0
 11 34  1  0  0  0  0
 12 35  1  0  0  0  0
 12 36  1  0  0  0  0
 13 15  1  0  0  0  0
 13 37  1  0  0  0  0
 13 38  1  0  0  0  0
 14 39  1  0  0  0  0
 14 40  1  0  0  0  0
 14 41  1  0  0  0  0
 15 42  1  0  0  0  0
 15 43  1  0  0  0  0
 16 20  1  0  0  0  0
 16 22  2  0  0  0  0
 17 19  2  0  0  0  0
 17 21  1  0  0  0  0
 18 19  1  0  0  0  0
 19 25  1  0  0  0  0
 20 24  2  0  0  0  0
 21 23  1  0  0  0  0
 21 26  2  0  0  0  0
 22 28  1  0  0  0  0
 22 45  1  0  0  0  0
 23 27  1  0  0  0  0
 24 30  1  0  0  0  0
 25 29  2  0  0  0  0
 25 46  1  0  0  0  0
 26 29  1  0  0  0  0
 26 47  1  0  0  0  0
 28 30  2  0  0  0  0
 28 49  1  0  0  0  0
 29 48  1  0  0  0  0
 30 51  1  0  0  0  0
M  END
> <PUBCHEM_COMPOUND_CID>
16046126

> <PUBCHEM_COMPOUND_CANONICALIZED>
1

> <PUBCHEM_CACTVS_COMPLEXITY>
772

> <PUBCHEM_CACTVS_HBOND_ACCEPTOR>
6

> <PUBCHEM_CACTVS_HBOND_DONOR>
2

> <PUBCHEM_CACTVS_ROTATABLE_BOND>
0

> <PUBCHEM_CACTVS_SUBSKEYS>
AAADceB7sAAAAAAAAAAAAAAAAAAAAWLAAAAwYIAAAAAAAAABQAAAHgAYAAAADDzhmAYyxoPiBACoAyVyVACCDAAlIgAaqAEvfNgOZrrE9ZuXOajm1hnY6cec2MOOAAACAgACECAAAAQEAAQgQAAAAAAAAA==

> <PUBCHEM_IUPAC_OPENEYE_NAME>
(13R,15S)-13-methyl-16-oxa-8,9,12,22,24-pentazahexacyclo[15.6.2.16,9.112,15.02,7.021,25]heptacosa-1(24),2,4,6,17,19,21(25)-heptaene-23,27-dione

> <PUBCHEM_IUPAC_CAS_NAME>
(13R,15S)-13-methyl-16-oxa-8,9,12,22,24-pentazahexacyclo[15.6.2.16,9.112,15.02,7.021,25]heptacosa-1(24),2,4,6,17,19,21(25)-heptaene-23,27-dione

> <PUBCHEM_IUPAC_NAME_MARKUP>
(13<I>R</I>,15<I>S</I>)-13-methyl-16-oxa-8,9,12,22,24-pentazahexacyclo[15.6.2.1<SUP>6,9</SUP>.1<SUP>12,15</SUP>.0<SUP>2,7</SUP>.0<SUP>21,25</SUP>]heptacosa-1(24),2,4,6,17,19,21(25)-heptaene-23,27-dione

> <PUBCHEM_IUPAC_NAME>
(13R,15S)-13-methyl-16-oxa-8,9,12,22,24-pentazahexacyclo[15.6.2.16,9.112,15.02,7.021,25]heptacosa-1(24),2,4,6,17,19,21(25)-heptaene-23,27-dione

> <PUBCHEM_IUPAC_SYSTEMATIC_NAME>
(13R,15S)-13-methyl-16-oxa-8,9,12,22,24-pentazahexacyclo[15.6.2.16,9.112,15.02,7.021,25]heptacosa-1(24),2,4,6,17,19,21(25)-heptaene-23,27-dione

> <PUBCHEM_IUPAC_TRADITIONAL_NAME>
(13R,15S)-13-methyl-16-oxa-8,9,12,22,24-pentazahexacyclo[15.6.2.16,9.112,15.02,7.021,25]heptacosa-1(24),2,4,6,17,19,21(25)-heptaene-23,27-quinone

> <PUBCHEM_IUPAC_INCHI>
InChI=1S/C22H21N5O3/c1-12-10-13-11-26(12)8-9-27-22(29)15-5-2-4-14(18(15)25-27)19-21(28)23-16-6-3-7-17(30-13)20(16)24-19/h2-7,12-13,25H,8-11H2,1H3,(H,23,28)/t12-,13+/m1/s1

> <PUBCHEM_IUPAC_INCHIKEY>
KBLPHMRCKHFBJB-OLZOCXBDSA-N

> <PUBCHEM_XLOGP3_AA>
2.2

> <PUBCHEM_EXACT_MASS>
403.16443955

> <PUBCHEM_MOLECULAR_FORMULA>
C22H21N5O3

> <PUBCHEM_MOLECULAR_WEIGHT>
403.4

> <PUBCHEM_SMILES>
C[C@@H]1C[C@H]2CN1CCN3C(=O)C4=C(N3)C(=CC=C4)C5=NC6=C(C=CC=C6O2)NC5=O

> <PUBCHEM_OPENEYE_CAN_SMILES>
CC1CC2CN1CCN3C(=O)C4=C(N3)C(=CC=C4)C5=NC6=C(C=CC=C6O2)NC5=O

> <PUBCHEM_OPENEYE_ISO_SMILES>
C[C@@H]1C[C@H]2CN1CCN3C(=O)C4=C(N3)C(=CC=C4)C5=NC6=C(C=CC=C6O2)NC5=O

> <PUBCHEM_CACTVS_TPSA>
86.3

> <PUBCHEM_MONOISOTOPIC_WEIGHT>
403.16443955

> <PUBCHEM_TOTAL_CHARGE>
0

> <PUBCHEM_HEAVY_ATOM_COUNT>
30

> <PUBCHEM_ATOM_DEF_STEREO_COUNT>
2

> <PUBCHEM_ATOM_UDEF_STEREO_COUNT>
0

> <PUBCHEM_BOND_DEF_STEREO_COUNT>
0

> <PUBCHEM_BOND_UDEF_STEREO_COUNT>
0

> <PUBCHEM_ISOTOPIC_ATOM_COUNT>
0

> <PUBCHEM_COMPONENT_COUNT>
1

> <PUBCHEM_CACTVS_TAUTO_COUNT>
-1

> <PUBCHEM_COORDINATE_TYPE>
1
5
255

> <PUBCHEM_BONDANNOTATIONS>
10  32  5
16  20  8
16  22  8
17  19  8
17  21  8
18  19  8
19  25  8
20  24  8
21  26  8
22  28  8
23  27  8
24  30  8
25  29  8
26  29  8
28  30  8
5  18  8
5  6  8
6  17  8
7  20  8
7  23  8
8  24  8
8  27  8
9  14  6

$$$$
