44370224
  -OEChem-03202505402D

 65 71  0     1  0  0  0  0  0999 V2000
    2.0000   -2.5751    0.0000 Br  0  0  0  0  0  0  0  0  0  0  0  0
    6.6284   -0.0103    0.0000 O   0  0  0  0  0  0  0  0  0  0  0  0
    4.6249   -2.2433    0.0000 O   0  0  0  0  0  0  0  0  0  0  0  0
    4.0035   -0.3422    0.0000 O   0  0  0  0  0  0  0  0  0  0  0  0
    6.5819   -2.6557    0.0000 O   0  0  0  0  0  0  0  0  0  0  0  0
    4.3607    1.3526    0.0000 O   0  0  0  0  0  0  0  0  0  0  0  0
   11.6435   -1.7552    0.0000 O   0  0  0  0  0  0  0  0  0  0  0  0
   11.6435    1.7552    0.0000 O   0  0  0  0  0  0  0  0  0  0  0  0
    3.3357   -1.0865    0.0000 O   0  0  0  0  0  0  0  0  0  0  0  0
    7.9176   -1.1671    0.0000 N   0  0  0  0  0  0  0  0  0  0  0  0
    7.9176    1.1671    0.0000 N   0  0  0  0  0  0  0  0  0  0  0  0
   11.9164    0.0000    0.0000 N   0  0  0  0  0  0  0  0  0  0  0  0
    6.9390   -0.9609    0.0000 C   0  0  3  0  0  0  0  0  0  0  0  0
    6.2712   -1.7052    0.0000 C   0  0  3  0  0  0  0  0  0  0  0  0
    5.2927   -1.4990    0.0000 C   0  0  3  0  0  0  0  0  0  0  0  0
    4.9820   -0.5484    0.0000 C   0  0  3  0  0  0  0  0  0  0  0  0
    5.6499    0.1959    0.0000 C   0  0  3  0  0  0  0  0  0  0  0  0
    8.6546   -0.5000    0.0000 C   0  0  0  0  0  0  0  0  0  0  0  0
    9.5206   -1.0000    0.0000 C   0  0  0  0  0  0  0  0  0  0  0  0
    8.3227   -2.0749    0.0000 C   0  0  0  0  0  0  0  0  0  0  0  0
    8.6546    0.5000    0.0000 C   0  0  0  0  0  0  0  0  0  0  0  0
    9.3114   -1.9718    0.0000 C   0  0  0  0  0  0  0  0  0  0  0  0
    9.5206    1.0000    0.0000 C   0  0  0  0  0  0  0  0  0  0  0  0
   10.3866   -0.5000    0.0000 C   0  0  0  0  0  0  0  0  0  0  0  0
   10.3866    0.5000    0.0000 C   0  0  0  0  0  0  0  0  0  0  0  0
    5.3392    1.1464    0.0000 C   0  0  0  0  0  0  0  0  0  0  0  0
    9.3114    1.9718    0.0000 C   0  0  0  0  0  0  0  0  0  0  0  0
    7.8862   -3.0138    0.0000 C   0  0  0  0  0  0  0  0  0  0  0  0
    8.3227    2.0749    0.0000 C   0  0  0  0  0  0  0  0  0  0  0  0
    9.9322   -2.8006    0.0000 C   0  0  0  0  0  0  0  0  0  0  0  0
   11.3328   -0.8047    0.0000 C   0  0  0  0  0  0  0  0  0  0  0  0
   11.3328    0.8047    0.0000 C   0  0  0  0  0  0  0  0  0  0  0  0
    8.4876   -3.8567    0.0000 C   0  0  0  0  0  0  0  0  0  0  0  0
    9.5175   -3.7494    0.0000 C   0  0  0  0  0  0  0  0  0  0  0  0
    9.9322    2.8006    0.0000 C   0  0  0  0  0  0  0  0  0  0  0  0
    3.6929    0.6083    0.0000 C   0  0  0  0  0  0  0  0  0  0  0  0
    7.8862    3.0138    0.0000 C   0  0  0  0  0  0  0  0  0  0  0  0
    3.6464   -2.0370    0.0000 C   0  0  0  0  0  0  0  0  0  0  0  0
    9.5175    3.7494    0.0000 C   0  0  0  0  0  0  0  0  0  0  0  0
    8.4876    3.8567    0.0000 C   0  0  0  0  0  0  0  0  0  0  0  0
    2.9785   -2.7813    0.0000 C   0  0  0  0  0  0  0  0  0  0  0  0
    7.1317   -1.5502    0.0000 H   0  0  0  0  0  0  0  0  0  0  0  0
    5.8571   -2.1666    0.0000 H   0  0  0  0  0  0  0  0  0  0  0  0
    4.6860   -1.3711    0.0000 H   0  0  0  0  0  0  0  0  0  0  0  0
    4.7894    0.0409    0.0000 H   0  0  0  0  0  0  0  0  0  0  0  0
    6.0639    0.6573    0.0000 H   0  0  0  0  0  0  0  0  0  0  0  0
    5.9530    1.2337    0.0000 H   0  0  0  0  0  0  0  0  0  0  0  0
    5.3598    1.7660    0.0000 H   0  0  0  0  0  0  0  0  0  0  0  0
    7.3109    1.0392    0.0000 H   0  0  0  0  0  0  0  0  0  0  0  0
    6.1678   -3.1172    0.0000 H   0  0  0  0  0  0  0  0  0  0  0  0
    7.2688   -3.0710    0.0000 H   0  0  0  0  0  0  0  0  0  0  0  0
   10.5480   -2.7292    0.0000 H   0  0  0  0  0  0  0  0  0  0  0  0
   12.5365    0.0000    0.0000 H   0  0  0  0  0  0  0  0  0  0  0  0
    8.2327   -4.4219    0.0000 H   0  0  0  0  0  0  0  0  0  0  0  0
    9.8834   -4.2499    0.0000 H   0  0  0  0  0  0  0  0  0  0  0  0
   10.5480    2.7292    0.0000 H   0  0  0  0  0  0  0  0  0  0  0  0
    4.2822    0.8009    0.0000 H   0  0  0  0  0  0  0  0  0  0  0  0
    3.5003    1.1976    0.0000 H   0  0  0  0  0  0  0  0  0  0  0  0
    3.1035    0.4157    0.0000 H   0  0  0  0  0  0  0  0  0  0  0  0
    7.2688    3.0710    0.0000 H   0  0  0  0  0  0  0  0  0  0  0  0
    4.1681    1.9419    0.0000 H   0  0  0  0  0  0  0  0  0  0  0  0
    9.8834    4.2499    0.0000 H   0  0  0  0  0  0  0  0  0  0  0  0
    8.2327    4.4219    0.0000 H   0  0  0  0  0  0  0  0  0  0  0  0
    2.7472   -3.3566    0.0000 H   0  0  0  0  0  0  0  0  0  0  0  0
    3.5049   -3.1090    0.0000 H   0  0  0  0  0  0  0  0  0  0  0  0
  1 41  1  0  0  0  0
  2 13  1  0  0  0  0
  2 17  1  0  0  0  0
  3 15  1  0  0  0  0
  3 38  1  0  0  0  0
  4 16  1  0  0  0  0
  4 36  1  0  0  0  0
  5 14  1  0  0  0  0
  5 50  1  0  0  0  0
  6 26  1  0  0  0  0
  6 61  1  0  0  0  0
  7 31  2  0  0  0  0
  8 32  2  0  0  0  0
  9 38  2  0  0  0  0
 10 13  1  0  0  0  0
 10 18  1  0  0  0  0
 10 20  1  0  0  0  0
 11 21  1  0  0  0  0
 11 29  1  0  0  0  0
 11 49  1  0  0  0  0
 12 31  1  0  0  0  0
 12 32  1  0  0  0  0
 12 53  1  0  0  0  0
 13 14  1  0  0  0  0
 13 42  1  0  0  0  0
 14 15  1  0  0  0  0
 14 43  1  0  0  0  0
 15 16  1  0  0  0  0
 15 44  1  0  0  0  0
 16 17  1  0  0  0  0
 16 45  1  0  0  0  0
 17 26  1  0  0  0  0
 17 46  1  0  0  0  0
 18 19  1  0  0  0  0
 18 21  2  0  0  0  0
 19 22  1  0  0  0  0
 19 24  2  0  0  0  0
 20 22  1  0  0  0  0
 20 28  2  0  0  0  0
 21 23  1  0  0  0  0
 22 30  2  0  0  0  0
 23 25  2  0  0  0  0
 23 27  1  0  0  0  0
 24 25  1  0  0  0  0
 24 31  1  0  0  0  0
 25 32  1  0  0  0  0
 26 47  1  0  0  0  0
 26 48  1  0  0  0  0
 27 29  1  0  0  0  0
 27 35  2  0  0  0  0
 28 33  1  0  0  0  0
 28 51  1  0  0  0  0
 29 37  2  0  0  0  0
 30 34  1  0  0  0  0
 30 52  1  0  0  0  0
 33 34  2  0  0  0  0
 33 54  1  0  0  0  0
 34 55  1  0  0  0  0
 35 39  1  0  0  0  0
 35 56  1  0  0  0  0
 36 57  1  0  0  0  0
 36 58  1  0  0  0  0
 36 59  1  0  0  0  0
 37 40  1  0  0  0  0
 37 60  1  0  0  0  0
 38 41  1  0  0  0  0
 39 40  2  0  0  0  0
 39 62  1  0  0  0  0
 40 63  1  0  0  0  0
 41 64  1  0  0  0  0
 41 65  1  0  0  0  0
M  END
> <PUBCHEM_COMPOUND_CID>
44370224

> <PUBCHEM_COMPOUND_CANONICALIZED>
1

> <PUBCHEM_CACTVS_COMPLEXITY>
1070

> <PUBCHEM_CACTVS_HBOND_ACCEPTOR>
8

> <PUBCHEM_CACTVS_HBOND_DONOR>
4

> <PUBCHEM_CACTVS_ROTATABLE_BOND>
6

> <PUBCHEM_CACTVS_SUBSKEYS>
AAADceB7PAAAEAAAAAAAAAAAAAAAAWLFgAA0YMEAAAAAAFgB/gAAHgBQCAABTBzhngYyyPPNlgCoAyXyXACCgCQlEiAI2SE4dNgrcPLAlZGeYQhnlCDbyQf9+caeyAACQAASACCQAASAACQAQAAAAAAAAA==

> <PUBCHEM_IUPAC_OPENEYE_NAME>
[2-(12,14-dioxo-3,13,23-triazahexacyclo[14.7.0.02,10.04,9.011,15.017,22]tricosa-1,4,6,8,10,15,17,19,21-nonaen-3-yl)-3-hydroxy-6-(hydroxymethyl)-5-methoxy-tetrahydropyran-4-yl] 2-bromoacetate

> <PUBCHEM_IUPAC_CAS_NAME>
2-bromoacetic acid [2-(12,14-dioxo-3,13,23-triazahexacyclo[14.7.0.02,10.04,9.011,15.017,22]tricosa-1,4,6,8,10,15,17,19,21-nonaen-3-yl)-3-hydroxy-6-(hydroxymethyl)-5-methoxy-4-oxanyl] ester

> <PUBCHEM_IUPAC_NAME_MARKUP>
[2-(12,14-dioxo-3,13,23-triazahexacyclo[14.7.0.0<SUP>2,10</SUP>.0<SUP>4,9</SUP>.0<SUP>11,15</SUP>.0<SUP>17,22</SUP>]tricosa-1,4,6,8,10,15,17,19,21-nonaen-3-yl)-3-hydroxy-6-(hydroxymethyl)-5-methoxyoxan-4-yl] 2-bromoacetate

> <PUBCHEM_IUPAC_NAME>
[2-(12,14-dioxo-3,13,23-triazahexacyclo[14.7.0.02,10.04,9.011,15.017,22]tricosa-1,4,6,8,10,15,17,19,21-nonaen-3-yl)-3-hydroxy-6-(hydroxymethyl)-5-methoxyoxan-4-yl] 2-bromoacetate

> <PUBCHEM_IUPAC_SYSTEMATIC_NAME>
[2-[12,14-bis(oxidanylidene)-3,13,23-triazahexacyclo[14.7.0.02,10.04,9.011,15.017,22]tricosa-1,4,6,8,10,15,17,19,21-nonaen-3-yl]-6-(hydroxymethyl)-5-methoxy-3-oxidanyl-oxan-4-yl] 2-bromanylethanoate

> <PUBCHEM_IUPAC_TRADITIONAL_NAME>
2-bromoacetic acid [2-(12,14-diketo-3,13,23-triazahexacyclo[14.7.0.02,10.04,9.011,15.017,22]tricosa-1,4,6,8,10,15,17,19,21-nonaen-3-yl)-3-hydroxy-5-methoxy-6-methylol-tetrahydropyran-4-yl] ester

> <PUBCHEM_IUPAC_INCHI>
InChI=1S/C29H24BrN3O8/c1-39-25-16(11-34)40-29(24(36)26(25)41-17(35)10-30)33-15-9-5-3-7-13(15)19-21-20(27(37)32-28(21)38)18-12-6-2-4-8-14(12)31-22(18)23(19)33/h2-9,16,24-26,29,31,34,36H,10-11H2,1H3,(H,32,37,38)

> <PUBCHEM_IUPAC_INCHIKEY>
XSBINZAIPQEGEY-UHFFFAOYSA-N

> <PUBCHEM_XLOGP3_AA>
2.7

> <PUBCHEM_EXACT_MASS>
621.07468

> <PUBCHEM_MOLECULAR_FORMULA>
C29H24BrN3O8

> <PUBCHEM_MOLECULAR_WEIGHT>
622.4

> <PUBCHEM_SMILES>
COC1C(OC(C(C1OC(=O)CBr)O)N2C3=CC=CC=C3C4=C5C(=C6C7=CC=CC=C7NC6=C42)C(=O)NC5=O)CO

> <PUBCHEM_OPENEYE_CAN_SMILES>
COC1C(OC(C(C1OC(=O)CBr)O)N2C3=CC=CC=C3C4=C5C(=C6C7=CC=CC=C7NC6=C42)C(=O)NC5=O)CO

> <PUBCHEM_OPENEYE_ISO_SMILES>
COC1C(OC(C(C1OC(=O)CBr)O)N2C3=CC=CC=C3C4=C5C(=C6C7=CC=CC=C7NC6=C42)C(=O)NC5=O)CO

> <PUBCHEM_CACTVS_TPSA>
152

> <PUBCHEM_MONOISOTOPIC_WEIGHT>
621.07468

> <PUBCHEM_TOTAL_CHARGE>
0

> <PUBCHEM_HEAVY_ATOM_COUNT>
41

> <PUBCHEM_ATOM_DEF_STEREO_COUNT>
0

> <PUBCHEM_ATOM_UDEF_STEREO_COUNT>
5

> <PUBCHEM_BOND_DEF_STEREO_COUNT>
0

> <PUBCHEM_BOND_UDEF_STEREO_COUNT>
0

> <PUBCHEM_ISOTOPIC_ATOM_COUNT>
0

> <PUBCHEM_COMPONENT_COUNT>
1

> <PUBCHEM_CACTVS_TAUTO_COUNT>
-1

> <PUBCHEM_COORDINATE_TYPE>
1
5
255

> <PUBCHEM_BONDANNOTATIONS>
13  10  3
10  18  8
10  20  8
11  21  8
11  29  8
17  26  3
18  19  8
18  21  8
19  22  8
19  24  8
20  22  8
20  28  8
21  23  8
22  30  8
23  25  8
23  27  8
24  25  8
27  29  8
27  35  8
28  33  8
29  37  8
15  3  3
30  34  8
33  34  8
35  39  8
37  40  8
39  40  8
16  4  3
14  5  3

$$$$
