49830366
  -OEChem-03202503302D

 69 72  0     0  0  0  0  0  0999 V2000
    8.1424   -0.8680    0.0000 S   0  0  0  0  0  0  0  0  0  0  0  0
   13.9669    4.6241    0.0000 F   0  0  0  0  0  0  0  0  0  0  0  0
    7.1962   -2.5633    0.0000 O   0  0  0  0  0  0  0  0  0  0  0  0
   11.0314    4.0055    0.0000 O   0  0  0  0  0  0  0  0  0  0  0  0
    3.7320   -5.5633    0.0000 N   0  0  0  0  0  0  0  0  0  0  0  0
    5.4641   -2.5633    0.0000 N   0  0  0  0  0  0  0  0  0  0  0  0
    5.4641    0.4367    0.0000 N   0  0  0  0  0  0  0  0  0  0  0  0
    6.3301    1.9367    0.0000 N   0  0  0  0  0  0  0  0  0  0  0  0
    9.3850    4.5436    0.0000 N   0  0  0  0  0  0  0  0  0  0  0  0
   10.6742    5.7003    0.0000 N   0  0  0  0  0  0  0  0  0  0  0  0
    4.5981   -5.0633    0.0000 C   0  0  0  0  0  0  0  0  0  0  0  0
    4.5981   -4.0633    0.0000 C   0  0  0  0  0  0  0  0  0  0  0  0
    5.4641   -3.5633    0.0000 C   0  0  0  0  0  0  0  0  0  0  0  0
    3.7320   -6.5633    0.0000 C   0  0  0  0  0  0  0  0  0  0  0  0
    2.8660   -5.0633    0.0000 C   0  0  0  0  0  0  0  0  0  0  0  0
    7.1962    0.4367    0.0000 C   0  0  0  0  0  0  0  0  0  0  0  0
    7.1962   -0.5633    0.0000 C   0  0  0  0  0  0  0  0  0  0  0  0
    6.3301   -1.0633    0.0000 C   0  0  0  0  0  0  0  0  0  0  0  0
    8.1424    0.7415    0.0000 C   0  0  0  0  0  0  0  0  0  0  0  0
    2.8660   -7.0633    0.0000 C   0  0  0  0  0  0  0  0  0  0  0  0
    2.0000   -5.5633    0.0000 C   0  0  0  0  0  0  0  0  0  0  0  0
    6.3301   -2.0633    0.0000 C   0  0  0  0  0  0  0  0  0  0  0  0
    8.4530    1.6920    0.0000 C   0  0  0  0  0  0  0  0  0  0  0  0
    6.3301    0.9367    0.0000 C   0  0  0  0  0  0  0  0  0  0  0  0
    8.7260   -0.0633    0.0000 C   0  0  0  0  0  0  0  0  0  0  0  0
    5.4641   -0.5633    0.0000 C   0  0  0  0  0  0  0  0  0  0  0  0
    7.7852    2.4363    0.0000 C   0  0  0  0  0  0  0  0  0  0  0  0
    9.4315    1.8982    0.0000 C   0  0  0  0  0  0  0  0  0  0  0  0
    9.0744    3.5930    0.0000 C   0  0  0  0  0  0  0  0  0  0  0  0
    8.0958    3.3868    0.0000 C   0  0  0  0  0  0  0  0  0  0  0  0
    9.7422    2.8487    0.0000 C   0  0  0  0  0  0  0  0  0  0  0  0
   10.3635    4.7498    0.0000 C   0  0  0  0  0  0  0  0  0  0  0  0
   11.6527    5.9065    0.0000 C   0  0  0  0  0  0  0  0  0  0  0  0
   12.3205    5.1622    0.0000 C   0  0  0  0  0  0  0  0  0  0  0  0
   11.9634    6.8570    0.0000 C   0  0  0  0  0  0  0  0  0  0  0  0
   13.2990    5.3684    0.0000 C   0  0  0  0  0  0  0  0  0  0  0  0
   12.9419    7.0633    0.0000 C   0  0  0  0  0  0  0  0  0  0  0  0
   13.6097    6.3190    0.0000 C   0  0  0  0  0  0  0  0  0  0  0  0
    4.8101   -5.6459    0.0000 H   0  0  0  0  0  0  0  0  0  0  0  0
    5.2087   -4.9556    0.0000 H   0  0  0  0  0  0  0  0  0  0  0  0
    4.3860   -3.4806    0.0000 H   0  0  0  0  0  0  0  0  0  0  0  0
    3.9875   -4.1709    0.0000 H   0  0  0  0  0  0  0  0  0  0  0  0
    5.6762   -4.1459    0.0000 H   0  0  0  0  0  0  0  0  0  0  0  0
    6.0747   -3.4556    0.0000 H   0  0  0  0  0  0  0  0  0  0  0  0
    3.9441   -7.1459    0.0000 H   0  0  0  0  0  0  0  0  0  0  0  0
    4.3426   -6.4556    0.0000 H   0  0  0  0  0  0  0  0  0  0  0  0
    3.2646   -4.5883    0.0000 H   0  0  0  0  0  0  0  0  0  0  0  0
    2.4675   -4.5883    0.0000 H   0  0  0  0  0  0  0  0  0  0  0  0
    4.9272   -2.2533    0.0000 H   0  0  0  0  0  0  0  0  0  0  0  0
    2.5560   -6.5263    0.0000 H   0  0  0  0  0  0  0  0  0  0  0  0
    2.3291   -7.3733    0.0000 H   0  0  0  0  0  0  0  0  0  0  0  0
    3.1760   -7.6002    0.0000 H   0  0  0  0  0  0  0  0  0  0  0  0
    1.6900   -5.0263    0.0000 H   0  0  0  0  0  0  0  0  0  0  0  0
    1.4631   -5.8733    0.0000 H   0  0  0  0  0  0  0  0  0  0  0  0
    2.3100   -6.1002    0.0000 H   0  0  0  0  0  0  0  0  0  0  0  0
    9.3460   -0.0633    0.0000 H   0  0  0  0  0  0  0  0  0  0  0  0
    4.9272   -0.8733    0.0000 H   0  0  0  0  0  0  0  0  0  0  0  0
    7.1785    2.3084    0.0000 H   0  0  0  0  0  0  0  0  0  0  0  0
    9.8456    1.4368    0.0000 H   0  0  0  0  0  0  0  0  0  0  0  0
    7.6818    3.8483    0.0000 H   0  0  0  0  0  0  0  0  0  0  0  0
   10.3489    2.9766    0.0000 H   0  0  0  0  0  0  0  0  0  0  0  0
    5.7932    2.2467    0.0000 H   0  0  0  0  0  0  0  0  0  0  0  0
    6.8671    2.2467    0.0000 H   0  0  0  0  0  0  0  0  0  0  0  0
    8.9710    5.0050    0.0000 H   0  0  0  0  0  0  0  0  0  0  0  0
   10.2601    6.1618    0.0000 H   0  0  0  0  0  0  0  0  0  0  0  0
   12.1279    4.5729    0.0000 H   0  0  0  0  0  0  0  0  0  0  0  0
   11.5493    7.3185    0.0000 H   0  0  0  0  0  0  0  0  0  0  0  0
   13.1345    7.6526    0.0000 H   0  0  0  0  0  0  0  0  0  0  0  0
   14.2164    6.4468    0.0000 H   0  0  0  0  0  0  0  0  0  0  0  0
  1 17  1  0  0  0  0
  1 25  1  0  0  0  0
  2 36  1  0  0  0  0
  3 22  2  0  0  0  0
  4 32  2  0  0  0  0
  5 11  1  0  0  0  0
  5 14  1  0  0  0  0
  5 15  1  0  0  0  0
  6 13  1  0  0  0  0
  6 22  1  0  0  0  0
  6 49  1  0  0  0  0
  7 24  2  0  0  0  0
  7 26  1  0  0  0  0
  8 24  1  0  0  0  0
  8 62  1  0  0  0  0
  8 63  1  0  0  0  0
  9 29  1  0  0  0  0
  9 32  1  0  0  0  0
  9 64  1  0  0  0  0
 10 32  1  0  0  0  0
 10 33  1  0  0  0  0
 10 65  1  0  0  0  0
 11 12  1  0  0  0  0
 11 39  1  0  0  0  0
 11 40  1  0  0  0  0
 12 13  1  0  0  0  0
 12 41  1  0  0  0  0
 12 42  1  0  0  0  0
 13 43  1  0  0  0  0
 13 44  1  0  0  0  0
 14 20  1  0  0  0  0
 14 45  1  0  0  0  0
 14 46  1  0  0  0  0
 15 21  1  0  0  0  0
 15 47  1  0  0  0  0
 15 48  1  0  0  0  0
 16 17  2  0  0  0  0
 16 19  1  0  0  0  0
 16 24  1  0  0  0  0
 17 18  1  0  0  0  0
 18 22  1  0  0  0  0
 18 26  2  0  0  0  0
 19 23  1  0  0  0  0
 19 25  2  0  0  0  0
 20 50  1  0  0  0  0
 20 51  1  0  0  0  0
 20 52  1  0  0  0  0
 21 53  1  0  0  0  0
 21 54  1  0  0  0  0
 21 55  1  0  0  0  0
 23 27  2  0  0  0  0
 23 28  1  0  0  0  0
 25 56  1  0  0  0  0
 26 57  1  0  0  0  0
 27 30  1  0  0  0  0
 27 58  1  0  0  0  0
 28 31  2  0  0  0  0
 28 59  1  0  0  0  0
 29 30  2  0  0  0  0
 29 31  1  0  0  0  0
 30 60  1  0  0  0  0
 31 61  1  0  0  0  0
 33 34  2  0  0  0  0
 33 35  1  0  0  0  0
 34 36  1  0  0  0  0
 34 66  1  0  0  0  0
 35 37  2  0  0  0  0
 35 67  1  0  0  0  0
 36 38  2  0  0  0  0
 37 38  1  0  0  0  0
 37 68  1  0  0  0  0
 38 69  1  0  0  0  0
M  END
> <PUBCHEM_COMPOUND_CID>
49830366

> <PUBCHEM_COMPOUND_CANONICALIZED>
1

> <PUBCHEM_CACTVS_COMPLEXITY>
766

> <PUBCHEM_CACTVS_HBOND_ACCEPTOR>
7

> <PUBCHEM_CACTVS_HBOND_DONOR>
4

> <PUBCHEM_CACTVS_ROTATABLE_BOND>
10

> <PUBCHEM_CACTVS_SUBSKEYS>
AAADceB7sQBAAAAAAAAAAAAAAAAAASAAAAA8YIAAAAAAAFgB/AAAHwQQAAAADAjF2gy/8dPIEAisAjd3dACDgKk1CjAI2LEoZNiIIHrg1ZGEIYxolgLoyecYicCOiAAAAAAAAAAQAAAAAAAAAAAAAAAAAA==

> <PUBCHEM_IUPAC_OPENEYE_NAME>
4-amino-N-[3-(diethylamino)propyl]-3-[4-[(3-fluorophenyl)carbamoylamino]phenyl]thieno[3,2-c]pyridine-7-carboxamide

> <PUBCHEM_IUPAC_CAS_NAME>
4-amino-N-[3-(diethylamino)propyl]-3-[4-[[(3-fluoroanilino)-oxomethyl]amino]phenyl]-7-thieno[3,2-c]pyridinecarboxamide

> <PUBCHEM_IUPAC_NAME_MARKUP>
4-amino-<I>N</I>-[3-(diethylamino)propyl]-3-[4-[(3-fluorophenyl)carbamoylamino]phenyl]thieno[3,2-c]pyridine-7-carboxamide

> <PUBCHEM_IUPAC_NAME>
4-amino-N-[3-(diethylamino)propyl]-3-[4-[(3-fluorophenyl)carbamoylamino]phenyl]thieno[3,2-c]pyridine-7-carboxamide

> <PUBCHEM_IUPAC_SYSTEMATIC_NAME>
4-azanyl-N-[3-(diethylamino)propyl]-3-[4-[(3-fluorophenyl)carbamoylamino]phenyl]thieno[3,2-c]pyridine-7-carboxamide

> <PUBCHEM_IUPAC_TRADITIONAL_NAME>
4-amino-N-[3-(diethylamino)propyl]-3-[4-[(3-fluorophenyl)carbamoylamino]phenyl]thieno[3,2-c]pyridine-7-carboxamide

> <PUBCHEM_IUPAC_INCHI>
InChI=1S/C28H31FN6O2S/c1-3-35(4-2)14-6-13-31-27(36)22-16-32-26(30)24-23(17-38-25(22)24)18-9-11-20(12-10-18)33-28(37)34-21-8-5-7-19(29)15-21/h5,7-12,15-17H,3-4,6,13-14H2,1-2H3,(H2,30,32)(H,31,36)(H2,33,34,37)

> <PUBCHEM_IUPAC_INCHIKEY>
RTYJMUXLFRYRBU-UHFFFAOYSA-N

> <PUBCHEM_XLOGP3_AA>
4.2

> <PUBCHEM_EXACT_MASS>
534.22132359

> <PUBCHEM_MOLECULAR_FORMULA>
C28H31FN6O2S

> <PUBCHEM_MOLECULAR_WEIGHT>
534.6

> <PUBCHEM_SMILES>
CCN(CC)CCCNC(=O)C1=CN=C(C2=C1SC=C2C3=CC=C(C=C3)NC(=O)NC4=CC(=CC=C4)F)N

> <PUBCHEM_OPENEYE_CAN_SMILES>
CCN(CC)CCCNC(=O)C1=CN=C(C2=C1SC=C2C3=CC=C(C=C3)NC(=O)NC4=CC(=CC=C4)F)N

> <PUBCHEM_OPENEYE_ISO_SMILES>
CCN(CC)CCCNC(=O)C1=CN=C(C2=C1SC=C2C3=CC=C(C=C3)NC(=O)NC4=CC(=CC=C4)F)N

> <PUBCHEM_CACTVS_TPSA>
141

> <PUBCHEM_MONOISOTOPIC_WEIGHT>
534.22132359

> <PUBCHEM_TOTAL_CHARGE>
0

> <PUBCHEM_HEAVY_ATOM_COUNT>
38

> <PUBCHEM_ATOM_DEF_STEREO_COUNT>
0

> <PUBCHEM_ATOM_UDEF_STEREO_COUNT>
0

> <PUBCHEM_BOND_DEF_STEREO_COUNT>
0

> <PUBCHEM_BOND_UDEF_STEREO_COUNT>
0

> <PUBCHEM_ISOTOPIC_ATOM_COUNT>
0

> <PUBCHEM_COMPONENT_COUNT>
1

> <PUBCHEM_CACTVS_TAUTO_COUNT>
-1

> <PUBCHEM_COORDINATE_TYPE>
1
5
255

> <PUBCHEM_BONDANNOTATIONS>
1  17  8
1  25  8
16  17  8
16  19  8
16  24  8
17  18  8
18  26  8
19  25  8
23  27  8
23  28  8
27  30  8
28  31  8
29  30  8
29  31  8
33  34  8
33  35  8
34  36  8
35  37  8
36  38  8
37  38  8
7  24  8
7  26  8

$$$$
