49830891
  -OEChem-03202503462D

 40 42  0     1  0  0  0  0  0999 V2000
    5.7816    1.2864    0.0000 Cl  0  0  0  0  0  0  0  0  0  0  0  0
    9.2620    2.3209    0.0000 O   0  0  0  0  0  0  0  0  0  0  0  0
   11.9117    0.8138    0.0000 O   0  0  0  0  0  0  0  0  0  0  0  0
   11.0399    2.3105    0.0000 O   0  0  0  0  0  0  0  0  0  0  0  0
    5.7816   -0.7136    0.0000 N   0  0  3  0  0  0  0  0  0  0  0  0
    2.6166   -1.7546    0.0000 N   0  0  0  0  0  0  0  0  0  0  0  0
    7.5136   -0.7136    0.0000 N   0  0  0  0  0  0  0  0  0  0  0  0
    9.2736   -0.7483    0.0000 N   0  0  0  0  0  0  0  0  0  0  0  0
    4.1989   -1.0501    0.0000 C   0  0  3  0  0  0  0  0  0  0  0  0
    4.6989   -1.9161    0.0000 C   0  0  0  0  0  0  0  0  0  0  0  0
    4.8680   -0.3069    0.0000 C   0  0  0  0  0  0  0  0  0  0  0  0
    5.6771   -1.7082    0.0000 C   0  0  0  0  0  0  0  0  0  0  0  0
    3.2044   -0.9455    0.0000 C   0  0  0  0  0  0  0  0  0  0  0  0
    6.6476   -0.2136    0.0000 C   0  0  0  0  0  0  0  0  0  0  0  0
    6.6476    0.7864    0.0000 C   0  0  0  0  0  0  0  0  0  0  0  0
    7.5136    1.2864    0.0000 C   0  0  0  0  0  0  0  0  0  0  0  0
    8.3797    0.7864    0.0000 C   0  0  0  0  0  0  0  0  0  0  0  0
    8.3797   -0.2136    0.0000 C   0  0  0  0  0  0  0  0  0  0  0  0
    7.5136    2.2864    0.0000 C   0  0  0  0  0  0  0  0  0  0  0  0
    9.2736    1.3210    0.0000 C   0  0  0  0  0  0  0  0  0  0  0  0
   10.1797    0.8072    0.0000 C   0  0  0  0  0  0  0  0  0  0  0  0
   10.1797   -0.2345    0.0000 C   0  0  0  0  0  0  0  0  0  0  0  0
   11.0438    1.3105    0.0000 C   0  0  0  0  0  0  0  0  0  0  0  0
    3.9767   -0.4712    0.0000 H   0  0  0  0  0  0  0  0  0  0  0  0
    4.1325   -2.1683    0.0000 H   0  0  0  0  0  0  0  0  0  0  0  0
    4.8905   -2.5057    0.0000 H   0  0  0  0  0  0  0  0  0  0  0  0
    5.1780    0.2300    0.0000 H   0  0  0  0  0  0  0  0  0  0  0  0
    4.3665    0.0575    0.0000 H   0  0  0  0  0  0  0  0  0  0  0  0
    5.7419   -2.3248    0.0000 H   0  0  0  0  0  0  0  0  0  0  0  0
    6.2971   -1.7082    0.0000 H   0  0  0  0  0  0  0  0  0  0  0  0
    3.3753   -0.3495    0.0000 H   0  0  0  0  0  0  0  0  0  0  0  0
    2.6471   -0.6737    0.0000 H   0  0  0  0  0  0  0  0  0  0  0  0
    2.0000   -1.6897    0.0000 H   0  0  0  0  0  0  0  0  0  0  0  0
    2.8688   -2.3209    0.0000 H   0  0  0  0  0  0  0  0  0  0  0  0
    8.1336    2.2864    0.0000 H   0  0  0  0  0  0  0  0  0  0  0  0
    7.5136    2.9064    0.0000 H   0  0  0  0  0  0  0  0  0  0  0  0
    6.8936    2.2864    0.0000 H   0  0  0  0  0  0  0  0  0  0  0  0
    9.2664   -1.3683    0.0000 H   0  0  0  0  0  0  0  0  0  0  0  0
   10.7154   -0.5465    0.0000 H   0  0  0  0  0  0  0  0  0  0  0  0
   12.4474    1.1259    0.0000 H   0  0  0  0  0  0  0  0  0  0  0  0
  1 15  1  0  0  0  0
  2 20  2  0  0  0  0
  3 23  1  0  0  0  0
  3 40  1  0  0  0  0
  4 23  2  0  0  0  0
  5 11  1  0  0  0  0
  5 12  1  0  0  0  0
  5 14  1  0  0  0  0
  6 13  1  0  0  0  0
  6 33  1  0  0  0  0
  6 34  1  0  0  0  0
  7 14  1  0  0  0  0
  7 18  2  0  0  0  0
  8 18  1  0  0  0  0
  8 22  1  0  0  0  0
  8 38  1  0  0  0  0
  9 10  1  0  0  0  0
  9 11  1  0  0  0  0
  9 13  1  0  0  0  0
  9 24  1  0  0  0  0
 10 12  1  0  0  0  0
 10 25  1  0  0  0  0
 10 26  1  0  0  0  0
 11 27  1  0  0  0  0
 11 28  1  0  0  0  0
 12 29  1  0  0  0  0
 12 30  1  0  0  0  0
 13 31  1  0  0  0  0
 13 32  1  0  0  0  0
 14 15  2  0  0  0  0
 15 16  1  0  0  0  0
 16 17  2  0  0  0  0
 16 19  1  0  0  0  0
 17 18  1  0  0  0  0
 17 20  1  0  0  0  0
 19 35  1  0  0  0  0
 19 36  1  0  0  0  0
 19 37  1  0  0  0  0
 20 21  1  0  0  0  0
 21 22  2  0  0  0  0
 21 23  1  0  0  0  0
 22 39  1  0  0  0  0
M  END
> <PUBCHEM_COMPOUND_CID>
49830891

> <PUBCHEM_COMPOUND_CANONICALIZED>
1

> <PUBCHEM_CACTVS_COMPLEXITY>
541

> <PUBCHEM_CACTVS_HBOND_ACCEPTOR>
7

> <PUBCHEM_CACTVS_HBOND_DONOR>
3

> <PUBCHEM_CACTVS_ROTATABLE_BOND>
3

> <PUBCHEM_CACTVS_SUBSKEYS>
AAADceBzsAAEAAAAAAAAAAAAAAAAAWAAAAAsQAAAAAAAAACBgAAAHgIQCAAADQbBmiQDuJPIEgCoAoL2bACCgCklBCABmKEoRtiIJH7J3pHEYYhssALI2eeY2TKOgAAAAAAAAAAAAAAAAAAAAAAAAAAAAA==

> <PUBCHEM_IUPAC_OPENEYE_NAME>
7-[3-(aminomethyl)pyrrolidin-1-yl]-6-chloro-5-methyl-4-oxo-1H-1,8-naphthyridine-3-carboxylic acid

> <PUBCHEM_IUPAC_CAS_NAME>
7-[3-(aminomethyl)-1-pyrrolidinyl]-6-chloro-5-methyl-4-oxo-1H-1,8-naphthyridine-3-carboxylic acid

> <PUBCHEM_IUPAC_NAME_MARKUP>
7-[3-(aminomethyl)pyrrolidin-1-yl]-6-chloro-5-methyl-4-oxo-1<I>H</I>-1,8-naphthyridine-3-carboxylic acid

> <PUBCHEM_IUPAC_NAME>
7-[3-(aminomethyl)pyrrolidin-1-yl]-6-chloro-5-methyl-4-oxo-1H-1,8-naphthyridine-3-carboxylic acid

> <PUBCHEM_IUPAC_SYSTEMATIC_NAME>
7-[3-(aminomethyl)pyrrolidin-1-yl]-6-chloranyl-5-methyl-4-oxidanylidene-1H-1,8-naphthyridine-3-carboxylic acid

> <PUBCHEM_IUPAC_TRADITIONAL_NAME>
7-[3-(aminomethyl)pyrrolidino]-6-chloro-4-keto-5-methyl-1H-1,8-naphthyridine-3-carboxylic acid

> <PUBCHEM_IUPAC_INCHI>
InChI=1S/C15H17ClN4O3/c1-7-10-12(21)9(15(22)23)5-18-13(10)19-14(11(7)16)20-3-2-8(4-17)6-20/h5,8H,2-4,6,17H2,1H3,(H,22,23)(H,18,19,21)

> <PUBCHEM_IUPAC_INCHIKEY>
ZMEIPDPKFPZUIJ-UHFFFAOYSA-N

> <PUBCHEM_XLOGP3_AA>
-0.3

> <PUBCHEM_EXACT_MASS>
336.0989181

> <PUBCHEM_MOLECULAR_FORMULA>
C15H17ClN4O3

> <PUBCHEM_MOLECULAR_WEIGHT>
336.77

> <PUBCHEM_SMILES>
CC1=C2C(=O)C(=CNC2=NC(=C1Cl)N3CCC(C3)CN)C(=O)O

> <PUBCHEM_OPENEYE_CAN_SMILES>
CC1=C2C(=O)C(=CNC2=NC(=C1Cl)N3CCC(C3)CN)C(=O)O

> <PUBCHEM_OPENEYE_ISO_SMILES>
CC1=C2C(=O)C(=CNC2=NC(=C1Cl)N3CCC(C3)CN)C(=O)O

> <PUBCHEM_CACTVS_TPSA>
109

> <PUBCHEM_MONOISOTOPIC_WEIGHT>
336.0989181

> <PUBCHEM_TOTAL_CHARGE>
0

> <PUBCHEM_HEAVY_ATOM_COUNT>
23

> <PUBCHEM_ATOM_DEF_STEREO_COUNT>
0

> <PUBCHEM_ATOM_UDEF_STEREO_COUNT>
1

> <PUBCHEM_BOND_DEF_STEREO_COUNT>
0

> <PUBCHEM_BOND_UDEF_STEREO_COUNT>
0

> <PUBCHEM_ISOTOPIC_ATOM_COUNT>
0

> <PUBCHEM_COMPONENT_COUNT>
1

> <PUBCHEM_CACTVS_TAUTO_COUNT>
-1

> <PUBCHEM_COORDINATE_TYPE>
1
5
255

> <PUBCHEM_BONDANNOTATIONS>
14  15  8
15  16  8
16  17  8
17  18  8
17  20  8
20  21  8
21  22  8
7  14  8
7  18  8
8  18  8
8  22  8
9  13  3

$$$$
