23646813
  -OEChem-03202504402D

 33 34  0     0  0  0  0  0  0999 V2000
    6.3301   -2.7500    0.0000 Cl  0  0  0  0  0  0  0  0  0  0  0  0
    2.8660   -0.7500    0.0000 O   0  0  0  0  0  0  0  0  0  0  0  0
    6.3301    0.2500    0.0000 O   0  0  0  0  0  0  0  0  0  0  0  0
    3.7320   -4.2500    0.0000 O   0  0  0  0  0  0  0  0  0  0  0  0
    4.5981    0.2500    0.0000 N   0  0  0  0  0  0  0  0  0  0  0  0
    5.4641    1.7500    0.0000 N   0  0  0  0  0  0  0  0  0  0  0  0
    6.3301    3.2500    0.0000 N   0  0  0  0  0  0  0  0  0  0  0  0
    8.0622    2.2500    0.0000 N   0  0  0  0  0  0  0  0  0  0  0  0
    9.7942    4.2500    0.0000 N   0  0  0  0  0  0  0  0  0  0  0  0
    4.5981   -0.7500    0.0000 C   0  0  0  0  0  0  0  0  0  0  0  0
    3.7320   -1.2500    0.0000 C   0  0  0  0  0  0  0  0  0  0  0  0
    5.4641   -1.2500    0.0000 C   0  0  0  0  0  0  0  0  0  0  0  0
    3.7320   -2.2500    0.0000 C   0  0  0  0  0  0  0  0  0  0  0  0
    4.5981   -2.7500    0.0000 C   0  0  0  0  0  0  0  0  0  0  0  0
    5.4641   -2.2500    0.0000 C   0  0  0  0  0  0  0  0  0  0  0  0
    5.4641    0.7500    0.0000 C   0  0  0  0  0  0  0  0  0  0  0  0
    6.3301    2.2500    0.0000 C   0  0  0  0  0  0  0  0  0  0  0  0
    4.5981   -3.7500    0.0000 C   0  0  0  0  0  0  0  0  0  0  0  0
    2.0000   -1.2500    0.0000 C   0  0  0  0  0  0  0  0  0  0  0  0
    7.1962    1.7500    0.0000 C   0  0  0  0  0  0  0  0  0  0  0  0
    7.1962    3.7500    0.0000 C   0  0  0  0  0  0  0  0  0  0  0  0
    8.0622    3.2500    0.0000 C   0  0  0  0  0  0  0  0  0  0  0  0
    8.9282    3.7500    0.0000 C   0  0  0  0  0  0  0  0  0  0  0  0
    6.0010   -0.9400    0.0000 H   0  0  0  0  0  0  0  0  0  0  0  0
    3.1951   -2.5600    0.0000 H   0  0  0  0  0  0  0  0  0  0  0  0
    4.0611    0.5600    0.0000 H   0  0  0  0  0  0  0  0  0  0  0  0
    4.9272    2.0600    0.0000 H   0  0  0  0  0  0  0  0  0  0  0  0
    5.1350   -4.0600    0.0000 H   0  0  0  0  0  0  0  0  0  0  0  0
    1.6900   -0.7131    0.0000 H   0  0  0  0  0  0  0  0  0  0  0  0
    1.4631   -1.5600    0.0000 H   0  0  0  0  0  0  0  0  0  0  0  0
    2.3100   -1.7869    0.0000 H   0  0  0  0  0  0  0  0  0  0  0  0
    7.1962    1.1300    0.0000 H   0  0  0  0  0  0  0  0  0  0  0  0
    7.1962    4.3700    0.0000 H   0  0  0  0  0  0  0  0  0  0  0  0
  1 15  1  0  0  0  0
  2 11  1  0  0  0  0
  2 19  1  0  0  0  0
  3 16  2  0  0  0  0
  4 18  2  0  0  0  0
  5 10  1  0  0  0  0
  5 16  1  0  0  0  0
  5 26  1  0  0  0  0
  6 16  1  0  0  0  0
  6 17  1  0  0  0  0
  6 27  1  0  0  0  0
  7 17  2  0  0  0  0
  7 21  1  0  0  0  0
  8 20  2  0  0  0  0
  8 22  1  0  0  0  0
  9 23  3  0  0  0  0
 10 11  2  0  0  0  0
 10 12  1  0  0  0  0
 11 13  1  0  0  0  0
 12 15  2  0  0  0  0
 12 24  1  0  0  0  0
 13 14  2  0  0  0  0
 13 25  1  0  0  0  0
 14 15  1  0  0  0  0
 14 18  1  0  0  0  0
 17 20  1  0  0  0  0
 18 28  1  0  0  0  0
 19 29  1  0  0  0  0
 19 30  1  0  0  0  0
 19 31  1  0  0  0  0
 20 32  1  0  0  0  0
 21 22  2  0  0  0  0
 21 33  1  0  0  0  0
 22 23  1  0  0  0  0
M  END
> <PUBCHEM_COMPOUND_CID>
23646813

> <PUBCHEM_COMPOUND_CANONICALIZED>
1

> <PUBCHEM_CACTVS_COMPLEXITY>
482

> <PUBCHEM_CACTVS_HBOND_ACCEPTOR>
6

> <PUBCHEM_CACTVS_HBOND_DONOR>
2

> <PUBCHEM_CACTVS_ROTATABLE_BOND>
4

> <PUBCHEM_CACTVS_SUBSKEYS>
AAADccBzsAAEAAAAAAAAAAAAAAAAAAAAAAA8QAAAAAAAAAABwAAAHgIQAAAADA7hniY/9pLIFAC4Bz539ACiiC01NyAB2AE/fsiO5nLFt5uVMShs1RPY7aeayRCeCCABAAIBEAAQQAIABAIgAAAAAAAAAA==

> <PUBCHEM_IUPAC_OPENEYE_NAME>
1-(5-chloro-4-formyl-2-methoxy-phenyl)-3-(5-cyanopyrazin-2-yl)urea

> <PUBCHEM_IUPAC_CAS_NAME>
1-(5-chloro-4-formyl-2-methoxyphenyl)-3-(5-cyano-2-pyrazinyl)urea

> <PUBCHEM_IUPAC_NAME_MARKUP>
1-(5-chloro-4-formyl-2-methoxyphenyl)-3-(5-cyanopyrazin-2-yl)urea

> <PUBCHEM_IUPAC_NAME>
1-(5-chloro-4-formyl-2-methoxyphenyl)-3-(5-cyanopyrazin-2-yl)urea

> <PUBCHEM_IUPAC_SYSTEMATIC_NAME>
1-(5-chloranyl-4-methanoyl-2-methoxy-phenyl)-3-(5-cyanopyrazin-2-yl)urea

> <PUBCHEM_IUPAC_TRADITIONAL_NAME>
1-(5-chloro-4-formyl-2-methoxy-phenyl)-3-(5-cyanopyrazin-2-yl)urea

> <PUBCHEM_IUPAC_INCHI>
InChI=1S/C14H10ClN5O3/c1-23-12-2-8(7-21)10(15)3-11(12)19-14(22)20-13-6-17-9(4-16)5-18-13/h2-3,5-7H,1H3,(H2,18,19,20,22)

> <PUBCHEM_IUPAC_INCHIKEY>
YTIZDTKSGSSUMG-UHFFFAOYSA-N

> <PUBCHEM_XLOGP3_AA>
0.8

> <PUBCHEM_EXACT_MASS>
331.0472169

> <PUBCHEM_MOLECULAR_FORMULA>
C14H10ClN5O3

> <PUBCHEM_MOLECULAR_WEIGHT>
331.71

> <PUBCHEM_SMILES>
COC1=C(C=C(C(=C1)C=O)Cl)NC(=O)NC2=NC=C(N=C2)C#N

> <PUBCHEM_OPENEYE_CAN_SMILES>
COC1=C(C=C(C(=C1)C=O)Cl)NC(=O)NC2=NC=C(N=C2)C#N

> <PUBCHEM_OPENEYE_ISO_SMILES>
COC1=C(C=C(C(=C1)C=O)Cl)NC(=O)NC2=NC=C(N=C2)C#N

> <PUBCHEM_CACTVS_TPSA>
117

> <PUBCHEM_MONOISOTOPIC_WEIGHT>
331.0472169

> <PUBCHEM_TOTAL_CHARGE>
0

> <PUBCHEM_HEAVY_ATOM_COUNT>
23

> <PUBCHEM_ATOM_DEF_STEREO_COUNT>
0

> <PUBCHEM_ATOM_UDEF_STEREO_COUNT>
0

> <PUBCHEM_BOND_DEF_STEREO_COUNT>
0

> <PUBCHEM_BOND_UDEF_STEREO_COUNT>
0

> <PUBCHEM_ISOTOPIC_ATOM_COUNT>
0

> <PUBCHEM_COMPONENT_COUNT>
1

> <PUBCHEM_CACTVS_TAUTO_COUNT>
-1

> <PUBCHEM_COORDINATE_TYPE>
1
5
255

> <PUBCHEM_BONDANNOTATIONS>
10  11  8
10  12  8
11  13  8
12  15  8
13  14  8
14  15  8
17  20  8
21  22  8
7  17  8
7  21  8
8  20  8
8  22  8

$$$$
