24905165
  -OEChem-03192523372D

 35 38  0     0  0  0  0  0  0999 V2000
    7.0828    3.2981    0.0000 O   0  0  0  0  0  0  0  0  0  0  0  0
    4.6783   -1.8125    0.0000 N   0  0  0  0  0  0  0  0  0  0  0  0
    5.2619   -1.0077    0.0000 N   0  0  0  0  0  0  0  0  0  0  0  0
    2.8660   -2.0077    0.0000 N   0  0  0  0  0  0  0  0  0  0  0  0
    2.0000   -0.5077    0.0000 N   0  0  0  0  0  0  0  0  0  0  0  0
    2.8660    0.9923    0.0000 N   0  0  0  0  0  0  0  0  0  0  0  0
    7.1859    2.3094    0.0000 N   0  0  0  0  0  0  0  0  0  0  0  0
    6.1110    3.5073    0.0000 N   0  0  0  0  0  0  0  0  0  0  0  0
    4.9889   -2.7630    0.0000 C   0  0  0  0  0  0  0  0  0  0  0  0
    3.7320   -1.5077    0.0000 C   0  0  0  0  0  0  0  0  0  0  0  0
    3.7320   -0.5077    0.0000 C   0  0  0  0  0  0  0  0  0  0  0  0
    4.6783   -0.2030    0.0000 C   0  0  0  0  0  0  0  0  0  0  0  0
    4.9889    0.7475    0.0000 C   0  0  0  0  0  0  0  0  0  0  0  0
    5.9674   -2.9692    0.0000 C   0  0  0  0  0  0  0  0  0  0  0  0
    4.3211   -3.5073    0.0000 C   0  0  0  0  0  0  0  0  0  0  0  0
    2.8660   -0.0077    0.0000 C   0  0  0  0  0  0  0  0  0  0  0  0
    5.9674    0.9537    0.0000 C   0  0  0  0  0  0  0  0  0  0  0  0
    4.3211    1.4918    0.0000 C   0  0  0  0  0  0  0  0  0  0  0  0
    6.2781    1.9042    0.0000 C   0  0  0  0  0  0  0  0  0  0  0  0
    5.6103    2.6486    0.0000 C   0  0  0  0  0  0  0  0  0  0  0  0
    4.6318    2.4423    0.0000 C   0  0  0  0  0  0  0  0  0  0  0  0
    2.0000   -1.5077    0.0000 C   0  0  0  0  0  0  0  0  0  0  0  0
    5.4030   -2.3015    0.0000 H   0  0  0  0  0  0  0  0  0  0  0  0
    5.8396   -3.5759    0.0000 H   0  0  0  0  0  0  0  0  0  0  0  0
    6.5741   -3.0971    0.0000 H   0  0  0  0  0  0  0  0  0  0  0  0
    6.0953   -2.3625    0.0000 H   0  0  0  0  0  0  0  0  0  0  0  0
    3.8596   -3.0932    0.0000 H   0  0  0  0  0  0  0  0  0  0  0  0
    3.9070   -3.9688    0.0000 H   0  0  0  0  0  0  0  0  0  0  0  0
    4.7826   -3.9214    0.0000 H   0  0  0  0  0  0  0  0  0  0  0  0
    6.3815    0.4923    0.0000 H   0  0  0  0  0  0  0  0  0  0  0  0
    3.7144    1.3640    0.0000 H   0  0  0  0  0  0  0  0  0  0  0  0
    4.2177    2.9038    0.0000 H   0  0  0  0  0  0  0  0  0  0  0  0
    1.4631   -1.8177    0.0000 H   0  0  0  0  0  0  0  0  0  0  0  0
    2.3291    1.3023    0.0000 H   0  0  0  0  0  0  0  0  0  0  0  0
    3.4030    1.3023    0.0000 H   0  0  0  0  0  0  0  0  0  0  0  0
  1  7  1  0  0  0  0
  1  8  1  0  0  0  0
  2  3  1  0  0  0  0
  2  9  1  0  0  0  0
  2 10  1  0  0  0  0
  3 12  2  0  0  0  0
  4 10  2  0  0  0  0
  4 22  1  0  0  0  0
  5 16  1  0  0  0  0
  5 22  2  0  0  0  0
  6 16  1  0  0  0  0
  6 34  1  0  0  0  0
  6 35  1  0  0  0  0
  7 19  2  0  0  0  0
  8 20  2  0  0  0  0
  9 14  1  0  0  0  0
  9 15  1  0  0  0  0
  9 23  1  0  0  0  0
 10 11  1  0  0  0  0
 11 12  1  0  0  0  0
 11 16  2  0  0  0  0
 12 13  1  0  0  0  0
 13 17  2  0  0  0  0
 13 18  1  0  0  0  0
 14 24  1  0  0  0  0
 14 25  1  0  0  0  0
 14 26  1  0  0  0  0
 15 27  1  0  0  0  0
 15 28  1  0  0  0  0
 15 29  1  0  0  0  0
 17 19  1  0  0  0  0
 17 30  1  0  0  0  0
 18 21  2  0  0  0  0
 18 31  1  0  0  0  0
 19 20  1  0  0  0  0
 20 21  1  0  0  0  0
 21 32  1  0  0  0  0
 22 33  1  0  0  0  0
M  END
> <PUBCHEM_COMPOUND_CID>
24905165

> <PUBCHEM_COMPOUND_CANONICALIZED>
1

> <PUBCHEM_CACTVS_COMPLEXITY>
409

> <PUBCHEM_CACTVS_HBOND_ACCEPTOR>
7

> <PUBCHEM_CACTVS_HBOND_DONOR>
1

> <PUBCHEM_CACTVS_ROTATABLE_BOND>
2

> <PUBCHEM_CACTVS_SUBSKEYS>
AAADccBzoAAAAAAAAAAAAAAAAAAAAWLAAAA8QAAAAAAAAFgB/gAAHAAcAAAADCjBHwQ38P5YEACjAyZjZgCShC8xkqA92CA4dJqIaKLA2dGEpAhoiILIyCcQgMAOCAAAQAAAACAQAACAAAAAQAAAAAAAAA==

> <PUBCHEM_IUPAC_OPENEYE_NAME>
3-(2,1,3-benzoxadiazol-5-yl)-1-isopropyl-pyrazolo[3,4-d]pyrimidin-4-amine

> <PUBCHEM_IUPAC_CAS_NAME>
3-(2,1,3-benzoxadiazol-5-yl)-1-propan-2-yl-4-pyrazolo[3,4-d]pyrimidinamine

> <PUBCHEM_IUPAC_NAME_MARKUP>
3-(2,1,3-benzoxadiazol-5-yl)-1-propan-2-ylpyrazolo[3,4-d]pyrimidin-4-amine

> <PUBCHEM_IUPAC_NAME>
3-(2,1,3-benzoxadiazol-5-yl)-1-propan-2-ylpyrazolo[3,4-d]pyrimidin-4-amine

> <PUBCHEM_IUPAC_SYSTEMATIC_NAME>
3-(2,1,3-benzoxadiazol-5-yl)-1-propan-2-yl-pyrazolo[3,4-d]pyrimidin-4-amine

> <PUBCHEM_IUPAC_TRADITIONAL_NAME>
(3-benzofurazan-5-yl-1-isopropyl-pyrazolo[3,4-d]pyrimidin-4-yl)amine

> <PUBCHEM_IUPAC_INCHI>
InChI=1S/C14H13N7O/c1-7(2)21-14-11(13(15)16-6-17-14)12(18-21)8-3-4-9-10(5-8)20-22-19-9/h3-7H,1-2H3,(H2,15,16,17)

> <PUBCHEM_IUPAC_INCHIKEY>
CYKWMIZUFXPHFW-UHFFFAOYSA-N

> <PUBCHEM_XLOGP3_AA>
1.5

> <PUBCHEM_EXACT_MASS>
295.11815806

> <PUBCHEM_MOLECULAR_FORMULA>
C14H13N7O

> <PUBCHEM_MOLECULAR_WEIGHT>
295.30

> <PUBCHEM_SMILES>
CC(C)N1C2=NC=NC(=C2C(=N1)C3=CC4=NON=C4C=C3)N

> <PUBCHEM_OPENEYE_CAN_SMILES>
CC(C)N1C2=NC=NC(=C2C(=N1)C3=CC4=NON=C4C=C3)N

> <PUBCHEM_OPENEYE_ISO_SMILES>
CC(C)N1C2=NC=NC(=C2C(=N1)C3=CC4=NON=C4C=C3)N

> <PUBCHEM_CACTVS_TPSA>
109

> <PUBCHEM_MONOISOTOPIC_WEIGHT>
295.11815806

> <PUBCHEM_TOTAL_CHARGE>
0

> <PUBCHEM_HEAVY_ATOM_COUNT>
22

> <PUBCHEM_ATOM_DEF_STEREO_COUNT>
0

> <PUBCHEM_ATOM_UDEF_STEREO_COUNT>
0

> <PUBCHEM_BOND_DEF_STEREO_COUNT>
0

> <PUBCHEM_BOND_UDEF_STEREO_COUNT>
0

> <PUBCHEM_ISOTOPIC_ATOM_COUNT>
0

> <PUBCHEM_COMPONENT_COUNT>
1

> <PUBCHEM_CACTVS_TAUTO_COUNT>
-1

> <PUBCHEM_COORDINATE_TYPE>
1
5
255

> <PUBCHEM_BONDANNOTATIONS>
1  7  8
1  8  8
10  11  8
11  12  8
11  16  8
13  17  8
13  18  8
17  19  8
18  21  8
19  20  8
2  10  8
2  3  8
20  21  8
3  12  8
4  10  8
4  22  8
5  16  8
5  22  8
7  19  8
8  20  8

$$$$
