11645208
  -OEChem-03202504442D

 44 47  0     0  0  0  0  0  0999 V2000
    4.0035    1.0994    0.0000 N   0  0  0  0  0  0  0  0  0  0  0  0
    4.3607   -0.5954    0.0000 N   0  0  0  0  0  0  0  0  0  0  0  0
    5.6499    0.5613    0.0000 N   0  0  0  0  0  0  0  0  0  0  0  0
    4.7179   -3.8997    0.0000 N   0  0  0  0  0  0  0  0  0  0  0  0
    2.9056   -4.0950    0.0000 N   0  0  0  0  0  0  0  0  0  0  0  0
    3.6464    2.7942    0.0000 C   0  0  0  0  0  0  0  0  0  0  0  0
    3.9570    3.7447    0.0000 C   0  0  0  0  0  0  0  0  0  0  0  0
    2.6678    2.5880    0.0000 C   0  0  0  0  0  0  0  0  0  0  0  0
    3.2892    4.4890    0.0000 C   0  0  0  0  0  0  0  0  0  0  0  0
    2.0000    3.3323    0.0000 C   0  0  0  0  0  0  0  0  0  0  0  0
    2.3107    4.2828    0.0000 C   0  0  0  0  0  0  0  0  0  0  0  0
    4.3142    2.0499    0.0000 C   0  0  0  0  0  0  0  0  0  0  0  0
    4.6714    0.3551    0.0000 C   0  0  0  0  0  0  0  0  0  0  0  0
    5.0286   -1.3397    0.0000 C   0  0  0  0  0  0  0  0  0  0  0  0
    4.7179   -2.2902    0.0000 C   0  0  0  0  0  0  0  0  0  0  0  0
    3.7717   -2.5950    0.0000 C   0  0  0  0  0  0  0  0  0  0  0  0
    6.0071   -1.1335    0.0000 C   0  0  0  0  0  0  0  0  0  0  0  0
    3.7717   -3.5950    0.0000 C   0  0  0  0  0  0  0  0  0  0  0  0
    5.3015   -3.0950    0.0000 C   0  0  0  0  0  0  0  0  0  0  0  0
    6.3177   -0.1830    0.0000 C   0  0  0  0  0  0  0  0  0  0  0  0
    2.9056   -2.0950    0.0000 C   0  0  0  0  0  0  0  0  0  0  0  0
    2.0396   -2.5950    0.0000 C   0  0  0  0  0  0  0  0  0  0  0  0
    2.0396   -3.5950    0.0000 C   0  0  0  0  0  0  0  0  0  0  0  0
    3.4537    2.2049    0.0000 H   0  0  0  0  0  0  0  0  0  0  0  0
    4.5039    3.4527    0.0000 H   0  0  0  0  0  0  0  0  0  0  0  0
    4.3396    4.2326    0.0000 H   0  0  0  0  0  0  0  0  0  0  0  0
    2.1415    2.2604    0.0000 H   0  0  0  0  0  0  0  0  0  0  0  0
    2.8991    2.0127    0.0000 H   0  0  0  0  0  0  0  0  0  0  0  0
    3.8155    4.8167    0.0000 H   0  0  0  0  0  0  0  0  0  0  0  0
    3.0579    5.0643    0.0000 H   0  0  0  0  0  0  0  0  0  0  0  0
    1.4531    3.6243    0.0000 H   0  0  0  0  0  0  0  0  0  0  0  0
    1.6174    2.8444    0.0000 H   0  0  0  0  0  0  0  0  0  0  0  0
    2.2901    4.9025    0.0000 H   0  0  0  0  0  0  0  0  0  0  0  0
    1.6968    4.3702    0.0000 H   0  0  0  0  0  0  0  0  0  0  0  0
    4.8611    1.7579    0.0000 H   0  0  0  0  0  0  0  0  0  0  0  0
    4.6968    2.5378    0.0000 H   0  0  0  0  0  0  0  0  0  0  0  0
    3.3969    0.9715    0.0000 H   0  0  0  0  0  0  0  0  0  0  0  0
    6.4211   -1.5950    0.0000 H   0  0  0  0  0  0  0  0  0  0  0  0
    5.9215   -3.0950    0.0000 H   0  0  0  0  0  0  0  0  0  0  0  0
    6.9244   -0.0551    0.0000 H   0  0  0  0  0  0  0  0  0  0  0  0
    4.9105   -4.4890    0.0000 H   0  0  0  0  0  0  0  0  0  0  0  0
    2.9056   -1.4750    0.0000 H   0  0  0  0  0  0  0  0  0  0  0  0
    1.5027   -2.2850    0.0000 H   0  0  0  0  0  0  0  0  0  0  0  0
    1.5027   -3.9050    0.0000 H   0  0  0  0  0  0  0  0  0  0  0  0
  1 12  1  0  0  0  0
  1 13  1  0  0  0  0
  1 37  1  0  0  0  0
  2 13  1  0  0  0  0
  2 14  2  0  0  0  0
  3 13  2  0  0  0  0
  3 20  1  0  0  0  0
  4 18  1  0  0  0  0
  4 19  1  0  0  0  0
  4 41  1  0  0  0  0
  5 18  1  0  0  0  0
  5 23  2  0  0  0  0
  6  7  1  0  0  0  0
  6  8  1  0  0  0  0
  6 12  1  0  0  0  0
  6 24  1  0  0  0  0
  7  9  1  0  0  0  0
  7 25  1  0  0  0  0
  7 26  1  0  0  0  0
  8 10  1  0  0  0  0
  8 27  1  0  0  0  0
  8 28  1  0  0  0  0
  9 11  1  0  0  0  0
  9 29  1  0  0  0  0
  9 30  1  0  0  0  0
 10 11  1  0  0  0  0
 10 31  1  0  0  0  0
 10 32  1  0  0  0  0
 11 33  1  0  0  0  0
 11 34  1  0  0  0  0
 12 35  1  0  0  0  0
 12 36  1  0  0  0  0
 14 15  1  0  0  0  0
 14 17  1  0  0  0  0
 15 16  1  0  0  0  0
 15 19  2  0  0  0  0
 16 18  2  0  0  0  0
 16 21  1  0  0  0  0
 17 20  2  0  0  0  0
 17 38  1  0  0  0  0
 19 39  1  0  0  0  0
 20 40  1  0  0  0  0
 21 22  2  0  0  0  0
 21 42  1  0  0  0  0
 22 23  1  0  0  0  0
 22 43  1  0  0  0  0
 23 44  1  0  0  0  0
M  END
> <PUBCHEM_COMPOUND_CID>
11645208

> <PUBCHEM_COMPOUND_CANONICALIZED>
1

> <PUBCHEM_CACTVS_COMPLEXITY>
370

> <PUBCHEM_CACTVS_HBOND_ACCEPTOR>
4

> <PUBCHEM_CACTVS_HBOND_DONOR>
2

> <PUBCHEM_CACTVS_ROTATABLE_BOND>
4

> <PUBCHEM_CACTVS_SUBSKEYS>
AAADceB7gAAAAAAAAAAAAAAAAAAAAWAAAAA8WIAAAAAAAFgB/gAAHAAQAAAADQjBHwQ9sN7JkACgAzZnZACCgCmxAqAJ2aA4ZJiIKOLA2dGEJAhokALIyCcQgIAOgAAAAAAAAAAAAAAAAAAAAAAAAAAAAA==

> <PUBCHEM_IUPAC_OPENEYE_NAME>
N-(cyclohexylmethyl)-4-(1H-pyrrolo[2,3-b]pyridin-3-yl)pyrimidin-2-amine

> <PUBCHEM_IUPAC_CAS_NAME>
N-(cyclohexylmethyl)-4-(1H-pyrrolo[2,3-b]pyridin-3-yl)-2-pyrimidinamine

> <PUBCHEM_IUPAC_NAME_MARKUP>
<I>N</I>-(cyclohexylmethyl)-4-(1<I>H</I>-pyrrolo[2,3-b]pyridin-3-yl)pyrimidin-2-amine

> <PUBCHEM_IUPAC_NAME>
N-(cyclohexylmethyl)-4-(1H-pyrrolo[2,3-b]pyridin-3-yl)pyrimidin-2-amine

> <PUBCHEM_IUPAC_SYSTEMATIC_NAME>
N-(cyclohexylmethyl)-4-(1H-pyrrolo[2,3-b]pyridin-3-yl)pyrimidin-2-amine

> <PUBCHEM_IUPAC_TRADITIONAL_NAME>
cyclohexylmethyl-[4-(1H-pyrrolo[2,3-b]pyridin-3-yl)pyrimidin-2-yl]amine

> <PUBCHEM_IUPAC_INCHI>
InChI=1S/C18H21N5/c1-2-5-13(6-3-1)11-22-18-20-10-8-16(23-18)15-12-21-17-14(15)7-4-9-19-17/h4,7-10,12-13H,1-3,5-6,11H2,(H,19,21)(H,20,22,23)

> <PUBCHEM_IUPAC_INCHIKEY>
KEBXAEFZLCNLJJ-UHFFFAOYSA-N

> <PUBCHEM_XLOGP3_AA>
3.9

> <PUBCHEM_EXACT_MASS>
307.17969569

> <PUBCHEM_MOLECULAR_FORMULA>
C18H21N5

> <PUBCHEM_MOLECULAR_WEIGHT>
307.4

> <PUBCHEM_SMILES>
C1CCC(CC1)CNC2=NC=CC(=N2)C3=CNC4=C3C=CC=N4

> <PUBCHEM_OPENEYE_CAN_SMILES>
C1CCC(CC1)CNC2=NC=CC(=N2)C3=CNC4=C3C=CC=N4

> <PUBCHEM_OPENEYE_ISO_SMILES>
C1CCC(CC1)CNC2=NC=CC(=N2)C3=CNC4=C3C=CC=N4

> <PUBCHEM_CACTVS_TPSA>
66.5

> <PUBCHEM_MONOISOTOPIC_WEIGHT>
307.17969569

> <PUBCHEM_TOTAL_CHARGE>
0

> <PUBCHEM_HEAVY_ATOM_COUNT>
23

> <PUBCHEM_ATOM_DEF_STEREO_COUNT>
0

> <PUBCHEM_ATOM_UDEF_STEREO_COUNT>
0

> <PUBCHEM_BOND_DEF_STEREO_COUNT>
0

> <PUBCHEM_BOND_UDEF_STEREO_COUNT>
0

> <PUBCHEM_ISOTOPIC_ATOM_COUNT>
0

> <PUBCHEM_COMPONENT_COUNT>
1

> <PUBCHEM_CACTVS_TAUTO_COUNT>
-1

> <PUBCHEM_COORDINATE_TYPE>
1
5
255

> <PUBCHEM_BONDANNOTATIONS>
14  17  8
15  16  8
15  19  8
16  18  8
16  21  8
17  20  8
2  13  8
2  14  8
21  22  8
22  23  8
3  13  8
3  20  8
4  18  8
4  19  8
5  18  8
5  23  8

$$$$
