135398522
  -OEChem-03202500322D

 36 39  0     0  0  0  0  0  0999 V2000
   10.8833    1.2316    0.0000 O   0  0  0  0  0  0  0  0  0  0  0  0
   10.8833   -0.3779    0.0000 O   0  0  0  0  0  0  0  0  0  0  0  0
    5.3515    2.3117    0.0000 O   0  0  0  0  0  0  0  0  0  0  0  0
    4.8903    0.5904    0.0000 N   0  0  0  0  0  0  0  0  0  0  0  0
    4.9836   -1.1891    0.0000 N   0  0  0  0  0  0  0  0  0  0  0  0
    6.3684   -0.0677    0.0000 N   0  0  0  0  0  0  0  0  0  0  0  0
    8.2050    0.9268    0.0000 C   0  0  0  0  0  0  0  0  0  0  0  0
    9.9371    0.9268    0.0000 C   0  0  0  0  0  0  0  0  0  0  0  0
    9.9371   -0.0732    0.0000 C   0  0  0  0  0  0  0  0  0  0  0  0
    9.0710    1.4268    0.0000 C   0  0  0  0  0  0  0  0  0  0  0  0
    7.3390    1.4268    0.0000 C   0  0  0  0  0  0  0  0  0  0  0  0
    6.4730    0.9268    0.0000 C   0  0  0  0  0  0  0  0  0  0  0  0
    8.2050   -0.0732    0.0000 C   0  0  0  0  0  0  0  0  0  0  0  0
    9.0710   -0.5732    0.0000 C   0  0  0  0  0  0  0  0  0  0  0  0
    5.3903   -0.2756    0.0000 C   0  0  0  0  0  0  0  0  0  0  0  0
   11.4669    0.4268    0.0000 C   0  0  0  0  0  0  0  0  0  0  0  0
    5.5594    1.3336    0.0000 C   0  0  0  0  0  0  0  0  0  0  0  0
    3.9890   -1.2937    0.0000 C   0  0  0  0  0  0  0  0  0  0  0  0
    3.5823   -2.2072    0.0000 C   0  0  0  0  0  0  0  0  0  0  0  0
    3.4013   -0.4846    0.0000 C   0  0  0  0  0  0  0  0  0  0  0  0
    2.5878   -2.3117    0.0000 C   0  0  0  0  0  0  0  0  0  0  0  0
    2.4067   -0.5892    0.0000 C   0  0  0  0  0  0  0  0  0  0  0  0
    2.0000   -1.5027    0.0000 C   0  0  0  0  0  0  0  0  0  0  0  0
    9.0710    2.0468    0.0000 H   0  0  0  0  0  0  0  0  0  0  0  0
    7.3390    2.0468    0.0000 H   0  0  0  0  0  0  0  0  0  0  0  0
    7.6681   -0.3832    0.0000 H   0  0  0  0  0  0  0  0  0  0  0  0
    9.0710   -1.1932    0.0000 H   0  0  0  0  0  0  0  0  0  0  0  0
   11.9278    0.0121    0.0000 H   0  0  0  0  0  0  0  0  0  0  0  0
   11.9278    0.8416    0.0000 H   0  0  0  0  0  0  0  0  0  0  0  0
    4.2737    0.6552    0.0000 H   0  0  0  0  0  0  0  0  0  0  0  0
    5.3480   -1.6907    0.0000 H   0  0  0  0  0  0  0  0  0  0  0  0
    3.9467   -2.7088    0.0000 H   0  0  0  0  0  0  0  0  0  0  0  0
    3.6534    0.0818    0.0000 H   0  0  0  0  0  0  0  0  0  0  0  0
    2.3356   -2.8781    0.0000 H   0  0  0  0  0  0  0  0  0  0  0  0
    2.0423   -0.0876    0.0000 H   0  0  0  0  0  0  0  0  0  0  0  0
    1.3834   -1.5675    0.0000 H   0  0  0  0  0  0  0  0  0  0  0  0
  1  8  1  0  0  0  0
  1 16  1  0  0  0  0
  2  9  1  0  0  0  0
  2 16  1  0  0  0  0
  3 17  2  0  0  0  0
  4 15  1  0  0  0  0
  4 17  1  0  0  0  0
  4 30  1  0  0  0  0
  5 15  1  0  0  0  0
  5 18  1  0  0  0  0
  5 31  1  0  0  0  0
  6 12  1  0  0  0  0
  6 15  2  0  0  0  0
  7 10  2  0  0  0  0
  7 11  1  0  0  0  0
  7 13  1  0  0  0  0
  8  9  2  0  0  0  0
  8 10  1  0  0  0  0
  9 14  1  0  0  0  0
 10 24  1  0  0  0  0
 11 12  2  0  0  0  0
 11 25  1  0  0  0  0
 12 17  1  0  0  0  0
 13 14  2  0  0  0  0
 13 26  1  0  0  0  0
 14 27  1  0  0  0  0
 16 28  1  0  0  0  0
 16 29  1  0  0  0  0
 18 19  2  0  0  0  0
 18 20  1  0  0  0  0
 19 21  1  0  0  0  0
 19 32  1  0  0  0  0
 20 22  2  0  0  0  0
 20 33  1  0  0  0  0
 21 23  2  0  0  0  0
 21 34  1  0  0  0  0
 22 23  1  0  0  0  0
 22 35  1  0  0  0  0
 23 36  1  0  0  0  0
M  END
> <PUBCHEM_COMPOUND_CID>
135398522

> <PUBCHEM_COMPOUND_CANONICALIZED>
1

> <PUBCHEM_CACTVS_COMPLEXITY>
525

> <PUBCHEM_CACTVS_HBOND_ACCEPTOR>
4

> <PUBCHEM_CACTVS_HBOND_DONOR>
2

> <PUBCHEM_CACTVS_ROTATABLE_BOND>
3

> <PUBCHEM_CACTVS_SUBSKEYS>
AAADccB7MAAAAAAAAAAAAAAAAAAAASIAAAAwYAAAAAAAAEgBQAAAHgAQAAAADAyBmAMxzoLABACoAiVSdACCCAEhIgAJiACG7MidZiLEuZu0MCps0RNO6aeQwBAOIAABAAAAQABAAAIAAACAAAAAAAAAAA==

> <PUBCHEM_IUPAC_OPENEYE_NAME>
(4Z)-2-anilino-4-(1,3-benzodioxol-5-ylmethylene)-1H-imidazol-5-one

> <PUBCHEM_IUPAC_CAS_NAME>
(4Z)-2-anilino-4-(1,3-benzodioxol-5-ylmethylidene)-1H-imidazol-5-one

> <PUBCHEM_IUPAC_NAME_MARKUP>
(4<I>Z</I>)-2-anilino-4-(1,3-benzodioxol-5-ylmethylidene)-1<I>H</I>-imidazol-5-one

> <PUBCHEM_IUPAC_NAME>
(4Z)-2-anilino-4-(1,3-benzodioxol-5-ylmethylidene)-1H-imidazol-5-one

> <PUBCHEM_IUPAC_SYSTEMATIC_NAME>
(4Z)-4-(1,3-benzodioxol-5-ylmethylidene)-2-phenylazanyl-1H-imidazol-5-one

> <PUBCHEM_IUPAC_TRADITIONAL_NAME>
(5Z)-2-anilino-5-piperonylidene-2-imidazolin-4-one

> <PUBCHEM_IUPAC_INCHI>
InChI=1S/C17H13N3O3/c21-16-13(8-11-6-7-14-15(9-11)23-10-22-14)19-17(20-16)18-12-4-2-1-3-5-12/h1-9H,10H2,(H2,18,19,20,21)/b13-8-

> <PUBCHEM_IUPAC_INCHIKEY>
PGPHHJBZEGSUNE-JYRVWZFOSA-N

> <PUBCHEM_XLOGP3_AA>
2.5

> <PUBCHEM_EXACT_MASS>
307.09569129

> <PUBCHEM_MOLECULAR_FORMULA>
C17H13N3O3

> <PUBCHEM_MOLECULAR_WEIGHT>
307.30

> <PUBCHEM_SMILES>
C1OC2=C(O1)C=C(C=C2)/C=C\3/C(=O)NC(=N3)NC4=CC=CC=C4

> <PUBCHEM_OPENEYE_CAN_SMILES>
C1OC2=C(O1)C=C(C=C2)C=C3C(=O)NC(=N3)NC4=CC=CC=C4

> <PUBCHEM_OPENEYE_ISO_SMILES>
C1OC2=C(O1)C=C(C=C2)/C=C\3/C(=O)NC(=N3)NC4=CC=CC=C4

> <PUBCHEM_CACTVS_TPSA>
72

> <PUBCHEM_MONOISOTOPIC_WEIGHT>
307.09569129

> <PUBCHEM_TOTAL_CHARGE>
0

> <PUBCHEM_HEAVY_ATOM_COUNT>
23

> <PUBCHEM_ATOM_DEF_STEREO_COUNT>
0

> <PUBCHEM_ATOM_UDEF_STEREO_COUNT>
0

> <PUBCHEM_BOND_DEF_STEREO_COUNT>
1

> <PUBCHEM_BOND_UDEF_STEREO_COUNT>
0

> <PUBCHEM_ISOTOPIC_ATOM_COUNT>
0

> <PUBCHEM_COMPONENT_COUNT>
1

> <PUBCHEM_CACTVS_TAUTO_COUNT>
-1

> <PUBCHEM_COORDINATE_TYPE>
1
5
255

> <PUBCHEM_BONDANNOTATIONS>
13  14  8
18  19  8
18  20  8
19  21  8
20  22  8
21  23  8
22  23  8
7  10  8
7  13  8
8  10  8
8  9  8
9  14  8

$$$$
