49831012
  -OEChem-03202504272D

 27 29  0     0  0  0  0  0  0999 V2000
    2.8680   -1.2915    0.0000 S   0  0  0  0  0  0  0  0  0  0  0  0
    4.6497   -2.3019    0.0000 O   0  0  0  0  0  0  0  0  0  0  0  0
    4.6381    0.7673    0.0000 N   0  0  0  0  0  0  0  0  0  0  0  0
    8.1821    1.7811    0.0000 N   0  0  0  0  0  0  0  0  0  0  0  0
    5.5320    0.2327    0.0000 C   0  0  0  0  0  0  0  0  0  0  0  0
    5.5320   -0.7673    0.0000 C   0  0  0  0  0  0  0  0  0  0  0  0
    6.3981    0.7327    0.0000 C   0  0  0  0  0  0  0  0  0  0  0  0
    7.2641    0.2327    0.0000 C   0  0  0  0  0  0  0  0  0  0  0  0
    6.3981   -1.2673    0.0000 C   0  0  0  0  0  0  0  0  0  0  0  0
    4.6381   -1.3020    0.0000 C   0  0  0  0  0  0  0  0  0  0  0  0
    7.2641   -0.7673    0.0000 C   0  0  0  0  0  0  0  0  0  0  0  0
    3.7320   -0.7881    0.0000 C   0  0  0  0  0  0  0  0  0  0  0  0
    3.7320    0.2535    0.0000 C   0  0  0  0  0  0  0  0  0  0  0  0
    6.3820    1.7742    0.0000 C   0  0  0  0  0  0  0  0  0  0  0  0
    8.1741    0.7395    0.0000 C   0  0  0  0  0  0  0  0  0  0  0  0
    7.2800    2.3019    0.0000 C   0  0  0  0  0  0  0  0  0  0  0  0
    2.0000   -0.7948    0.0000 C   0  0  0  0  0  0  0  0  0  0  0  0
    6.3981   -1.8873    0.0000 H   0  0  0  0  0  0  0  0  0  0  0  0
    4.6453    1.3873    0.0000 H   0  0  0  0  0  0  0  0  0  0  0  0
    7.8010   -1.0773    0.0000 H   0  0  0  0  0  0  0  0  0  0  0  0
    3.1963    0.5655    0.0000 H   0  0  0  0  0  0  0  0  0  0  0  0
    5.8415    2.0779    0.0000 H   0  0  0  0  0  0  0  0  0  0  0  0
    8.7074    0.4233    0.0000 H   0  0  0  0  0  0  0  0  0  0  0  0
    7.2777    2.9219    0.0000 H   0  0  0  0  0  0  0  0  0  0  0  0
    2.3079   -0.2567    0.0000 H   0  0  0  0  0  0  0  0  0  0  0  0
    1.4619   -0.4869    0.0000 H   0  0  0  0  0  0  0  0  0  0  0  0
    1.6921   -1.3330    0.0000 H   0  0  0  0  0  0  0  0  0  0  0  0
  1 12  1  0  0  0  0
  1 17  1  0  0  0  0
  2 10  2  0  0  0  0
  3  5  1  0  0  0  0
  3 13  1  0  0  0  0
  3 19  1  0  0  0  0
  4 15  2  0  0  0  0
  4 16  1  0  0  0  0
  5  6  2  0  0  0  0
  5  7  1  0  0  0  0
  6  9  1  0  0  0  0
  6 10  1  0  0  0  0
  7  8  2  0  0  0  0
  7 14  1  0  0  0  0
  8 11  1  0  0  0  0
  8 15  1  0  0  0  0
  9 11  2  0  0  0  0
  9 18  1  0  0  0  0
 10 12  1  0  0  0  0
 11 20  1  0  0  0  0
 12 13  2  0  0  0  0
 13 21  1  0  0  0  0
 14 16  2  0  0  0  0
 14 22  1  0  0  0  0
 15 23  1  0  0  0  0
 16 24  1  0  0  0  0
 17 25  1  0  0  0  0
 17 26  1  0  0  0  0
 17 27  1  0  0  0  0
M  END
> <PUBCHEM_COMPOUND_CID>
49831012

> <PUBCHEM_COMPOUND_CANONICALIZED>
1

> <PUBCHEM_CACTVS_COMPLEXITY>
355

> <PUBCHEM_CACTVS_HBOND_ACCEPTOR>
4

> <PUBCHEM_CACTVS_HBOND_DONOR>
1

> <PUBCHEM_CACTVS_ROTATABLE_BOND>
1

> <PUBCHEM_CACTVS_SUBSKEYS>
AAADccBzIABAAAAAAAAAAAAAAAAAAAAAAAA8QIAAAAAAAACx8AAAHgQQAAAADAzB2gS+wNLIEAioArR3RACCgCA1AjAI2KE4ZNgIIPrglZGEIYhggADIyccYiMCOwAACQAASAACAAASAACQAAAAAAAAAAA==

> <PUBCHEM_IUPAC_OPENEYE_NAME>
3-methylsulfanyl-1H-1,8-phenanthrolin-4-one

> <PUBCHEM_IUPAC_CAS_NAME>
3-(methylthio)-1H-1,8-phenanthrolin-4-one

> <PUBCHEM_IUPAC_NAME_MARKUP>
3-methylsulfanyl-1<I>H</I>-1,8-phenanthrolin-4-one

> <PUBCHEM_IUPAC_NAME>
3-methylsulfanyl-1H-1,8-phenanthrolin-4-one

> <PUBCHEM_IUPAC_SYSTEMATIC_NAME>
3-methylsulfanyl-1H-1,8-phenanthrolin-4-one

> <PUBCHEM_IUPAC_TRADITIONAL_NAME>
3-(methylthio)-1H-1,8-phenanthrolin-4-one

> <PUBCHEM_IUPAC_INCHI>
InChI=1S/C13H10N2OS/c1-17-11-7-15-12-9-4-5-14-6-8(9)2-3-10(12)13(11)16/h2-7H,1H3,(H,15,16)

> <PUBCHEM_IUPAC_INCHIKEY>
CFBADDSSFSYJPF-UHFFFAOYSA-N

> <PUBCHEM_XLOGP3_AA>
2.5

> <PUBCHEM_EXACT_MASS>
242.05138412

> <PUBCHEM_MOLECULAR_FORMULA>
C13H10N2OS

> <PUBCHEM_MOLECULAR_WEIGHT>
242.30

> <PUBCHEM_SMILES>
CSC1=CNC2=C(C1=O)C=CC3=C2C=CN=C3

> <PUBCHEM_OPENEYE_CAN_SMILES>
CSC1=CNC2=C(C1=O)C=CC3=C2C=CN=C3

> <PUBCHEM_OPENEYE_ISO_SMILES>
CSC1=CNC2=C(C1=O)C=CC3=C2C=CN=C3

> <PUBCHEM_CACTVS_TPSA>
67.3

> <PUBCHEM_MONOISOTOPIC_WEIGHT>
242.05138412

> <PUBCHEM_TOTAL_CHARGE>
0

> <PUBCHEM_HEAVY_ATOM_COUNT>
17

> <PUBCHEM_ATOM_DEF_STEREO_COUNT>
0

> <PUBCHEM_ATOM_UDEF_STEREO_COUNT>
0

> <PUBCHEM_BOND_DEF_STEREO_COUNT>
0

> <PUBCHEM_BOND_UDEF_STEREO_COUNT>
0

> <PUBCHEM_ISOTOPIC_ATOM_COUNT>
0

> <PUBCHEM_COMPONENT_COUNT>
1

> <PUBCHEM_CACTVS_TAUTO_COUNT>
-1

> <PUBCHEM_COORDINATE_TYPE>
1
5
255

> <PUBCHEM_BONDANNOTATIONS>
10  12  8
12  13  8
14  16  8
3  13  8
3  5  8
4  15  8
4  16  8
5  6  8
5  7  8
6  10  8
6  9  8
7  14  8
7  8  8
8  11  8
8  15  8
9  11  8

$$$$
