49830594
  -OEChem-03202504262D

 33 35  0     0  0  0  0  0  0999 V2000
    3.7320   -0.3818    0.0000 Cl  0  0  0  0  0  0  0  0  0  0  0  0
    2.0000   -1.3818    0.0000 Cl  0  0  0  0  0  0  0  0  0  0  0  0
    5.5443   -3.1865    0.0000 S   0  0  0  0  0  0  0  0  0  0  0  0
    7.5013   -1.1646    0.0000 O   0  0  0  0  0  0  0  0  0  0  0  0
    5.8550   -0.6265    0.0000 N   0  0  0  0  0  0  0  0  0  0  0  0
    8.1279   -2.3818    0.0000 N   0  0  0  0  0  0  0  0  0  0  0  0
    4.5981   -1.8818    0.0000 C   0  0  0  0  0  0  0  0  0  0  0  0
    5.5443   -1.5770    0.0000 C   0  0  0  0  0  0  0  0  0  0  0  0
    4.5981   -2.8818    0.0000 C   0  0  0  0  0  0  0  0  0  0  0  0
    6.1279   -2.3818    0.0000 C   0  0  0  0  0  0  0  0  0  0  0  0
    3.7320   -1.3818    0.0000 C   0  0  0  0  0  0  0  0  0  0  0  0
    3.7320   -3.3818    0.0000 C   0  0  0  0  0  0  0  0  0  0  0  0
    7.1441    0.5302    0.0000 C   0  0  0  0  0  0  0  0  0  0  0  0
    6.8335   -0.4203    0.0000 C   0  0  0  0  0  0  0  0  0  0  0  0
    2.8660   -1.8818    0.0000 C   0  0  0  0  0  0  0  0  0  0  0  0
    2.8660   -2.8818    0.0000 C   0  0  0  0  0  0  0  0  0  0  0  0
    8.1226    0.7364    0.0000 C   0  0  0  0  0  0  0  0  0  0  0  0
    6.4763    1.2745    0.0000 C   0  0  0  0  0  0  0  0  0  0  0  0
    7.7654    2.4313    0.0000 C   0  0  0  0  0  0  0  0  0  0  0  0
    8.4333    1.6870    0.0000 C   0  0  0  0  0  0  0  0  0  0  0  0
    6.7870    2.2250    0.0000 C   0  0  0  0  0  0  0  0  0  0  0  0
    8.0761    3.3818    0.0000 C   0  0  0  0  0  0  0  0  0  0  0  0
    7.1279   -2.3818    0.0000 C   0  0  0  0  0  0  0  0  0  0  0  0
    5.4409   -0.1651    0.0000 H   0  0  0  0  0  0  0  0  0  0  0  0
    3.7320   -4.0018    0.0000 H   0  0  0  0  0  0  0  0  0  0  0  0
    2.3291   -3.1918    0.0000 H   0  0  0  0  0  0  0  0  0  0  0  0
    8.5367    0.2750    0.0000 H   0  0  0  0  0  0  0  0  0  0  0  0
    5.8696    1.1467    0.0000 H   0  0  0  0  0  0  0  0  0  0  0  0
    9.0400    1.8148    0.0000 H   0  0  0  0  0  0  0  0  0  0  0  0
    6.3729    2.6865    0.0000 H   0  0  0  0  0  0  0  0  0  0  0  0
    8.6654    3.1892    0.0000 H   0  0  0  0  0  0  0  0  0  0  0  0
    8.2687    3.9711    0.0000 H   0  0  0  0  0  0  0  0  0  0  0  0
    7.4868    3.5744    0.0000 H   0  0  0  0  0  0  0  0  0  0  0  0
  1 11  1  0  0  0  0
  2 15  1  0  0  0  0
  3  9  1  0  0  0  0
  3 10  1  0  0  0  0
  4 14  2  0  0  0  0
  5  8  1  0  0  0  0
  5 14  1  0  0  0  0
  5 24  1  0  0  0  0
  6 23  3  0  0  0  0
  7  8  1  0  0  0  0
  7  9  2  0  0  0  0
  7 11  1  0  0  0  0
  8 10  2  0  0  0  0
  9 12  1  0  0  0  0
 10 23  1  0  0  0  0
 11 15  2  0  0  0  0
 12 16  2  0  0  0  0
 12 25  1  0  0  0  0
 13 14  1  0  0  0  0
 13 17  2  0  0  0  0
 13 18  1  0  0  0  0
 15 16  1  0  0  0  0
 16 26  1  0  0  0  0
 17 20  1  0  0  0  0
 17 27  1  0  0  0  0
 18 21  2  0  0  0  0
 18 28  1  0  0  0  0
 19 20  2  0  0  0  0
 19 21  1  0  0  0  0
 19 22  1  0  0  0  0
 20 29  1  0  0  0  0
 21 30  1  0  0  0  0
 22 31  1  0  0  0  0
 22 32  1  0  0  0  0
 22 33  1  0  0  0  0
M  END
> <PUBCHEM_COMPOUND_CID>
49830594

> <PUBCHEM_COMPOUND_CANONICALIZED>
1

> <PUBCHEM_CACTVS_COMPLEXITY>
500

> <PUBCHEM_CACTVS_HBOND_ACCEPTOR>
3

> <PUBCHEM_CACTVS_HBOND_DONOR>
1

> <PUBCHEM_CACTVS_ROTATABLE_BOND>
2

> <PUBCHEM_CACTVS_SUBSKEYS>
AAADccB7IABGAAAAAAAAAAAAAAAAASAAAAAwYAAAAAAAAEgB9AAAHgYQAAAADAqB2CAywcLAAAicBiVSUACjAIAlDRBIil0ARsgIoDLhl5GEIQxghADoyY8YiICOQAIAIBAFAASABABAIAoACAAAAAAAAA==

> <PUBCHEM_IUPAC_OPENEYE_NAME>
N-(4,5-dichloro-2-cyano-benzothiophen-3-yl)-4-methyl-benzamide

> <PUBCHEM_IUPAC_CAS_NAME>
N-(4,5-dichloro-2-cyano-1-benzothiophen-3-yl)-4-methylbenzamide

> <PUBCHEM_IUPAC_NAME_MARKUP>
<I>N</I>-(4,5-dichloro-2-cyano-1-benzothiophen-3-yl)-4-methylbenzamide

> <PUBCHEM_IUPAC_NAME>
N-(4,5-dichloro-2-cyano-1-benzothiophen-3-yl)-4-methylbenzamide

> <PUBCHEM_IUPAC_SYSTEMATIC_NAME>
N-[4,5-bis(chloranyl)-2-cyano-1-benzothiophen-3-yl]-4-methyl-benzamide

> <PUBCHEM_IUPAC_TRADITIONAL_NAME>
N-(4,5-dichloro-2-cyano-benzothiophen-3-yl)-4-methyl-benzamide

> <PUBCHEM_IUPAC_INCHI>
InChI=1S/C17H10Cl2N2OS/c1-9-2-4-10(5-3-9)17(22)21-16-13(8-20)23-12-7-6-11(18)15(19)14(12)16/h2-7H,1H3,(H,21,22)

> <PUBCHEM_IUPAC_INCHIKEY>
ROPVGAMDOWWUTK-UHFFFAOYSA-N

> <PUBCHEM_XLOGP3_AA>
6

> <PUBCHEM_EXACT_MASS>
359.9890895

> <PUBCHEM_MOLECULAR_FORMULA>
C17H10Cl2N2OS

> <PUBCHEM_MOLECULAR_WEIGHT>
361.2

> <PUBCHEM_SMILES>
CC1=CC=C(C=C1)C(=O)NC2=C(SC3=C2C(=C(C=C3)Cl)Cl)C#N

> <PUBCHEM_OPENEYE_CAN_SMILES>
CC1=CC=C(C=C1)C(=O)NC2=C(SC3=C2C(=C(C=C3)Cl)Cl)C#N

> <PUBCHEM_OPENEYE_ISO_SMILES>
CC1=CC=C(C=C1)C(=O)NC2=C(SC3=C2C(=C(C=C3)Cl)Cl)C#N

> <PUBCHEM_CACTVS_TPSA>
81.1

> <PUBCHEM_MONOISOTOPIC_WEIGHT>
359.9890895

> <PUBCHEM_TOTAL_CHARGE>
0

> <PUBCHEM_HEAVY_ATOM_COUNT>
23

> <PUBCHEM_ATOM_DEF_STEREO_COUNT>
0

> <PUBCHEM_ATOM_UDEF_STEREO_COUNT>
0

> <PUBCHEM_BOND_DEF_STEREO_COUNT>
0

> <PUBCHEM_BOND_UDEF_STEREO_COUNT>
0

> <PUBCHEM_ISOTOPIC_ATOM_COUNT>
0

> <PUBCHEM_COMPONENT_COUNT>
1

> <PUBCHEM_CACTVS_TAUTO_COUNT>
-1

> <PUBCHEM_COORDINATE_TYPE>
1
5
255

> <PUBCHEM_BONDANNOTATIONS>
11  15  8
12  16  8
13  17  8
13  18  8
15  16  8
17  20  8
18  21  8
19  20  8
19  21  8
3  10  8
3  9  8
7  11  8
7  8  8
7  9  8
8  10  8
9  12  8

$$$$
