5330812
  -OEChem-03202505052D

 41 43  0     0  0  0  0  0  0999 V2000
    5.8076    4.4278    0.0000 S   0  0  0  0  0  0  0  0  0  0  0  0
    2.4577   -2.2927    0.0000 S   0  0  0  0  0  0  0  0  0  0  0  0
    2.0510   -3.2062    0.0000 F   0  0  0  0  0  0  0  0  0  0  0  0
    5.2156   -4.6152    0.0000 F   0  0  0  0  0  0  0  0  0  0  0  0
    6.8076    4.4278    0.0000 O   0  0  0  0  0  0  0  0  0  0  0  0
    4.8076    4.4278    0.0000 O   0  0  0  0  0  0  0  0  0  0  0  0
    5.8076    0.4278    0.0000 N   0  0  0  0  0  0  0  0  0  0  0  0
    3.8590   -1.2746    0.0000 N   0  0  0  0  0  0  0  0  0  0  0  0
    4.8371   -1.0667    0.0000 N   0  0  0  0  0  0  0  0  0  0  0  0
    4.0400   -2.9972    0.0000 N   0  0  0  0  0  0  0  0  0  0  0  0
    4.0281    0.3346    0.0000 N   0  0  0  0  0  0  0  0  0  0  0  0
    5.8076    5.4278    0.0000 N   0  0  0  0  0  0  0  0  0  0  0  0
    2.3644   -0.3041    0.0000 N   0  0  0  0  0  0  0  0  0  0  0  0
    5.8076    1.4278    0.0000 C   0  0  0  0  0  0  0  0  0  0  0  0
    5.8076    3.4278    0.0000 C   0  0  0  0  0  0  0  0  0  0  0  0
    6.6737    1.9278    0.0000 C   0  0  0  0  0  0  0  0  0  0  0  0
    4.9416    1.9278    0.0000 C   0  0  0  0  0  0  0  0  0  0  0  0
    6.6737    2.9278    0.0000 C   0  0  0  0  0  0  0  0  0  0  0  0
    4.9416    2.9278    0.0000 C   0  0  0  0  0  0  0  0  0  0  0  0
    4.9416   -0.0722    0.0000 C   0  0  0  0  0  0  0  0  0  0  0  0
    3.3590   -0.4086    0.0000 C   0  0  0  0  0  0  0  0  0  0  0  0
    3.4522   -2.1882    0.0000 C   0  0  0  0  0  0  0  0  0  0  0  0
    3.6333   -3.9107    0.0000 C   0  0  0  0  0  0  0  0  0  0  0  0
    2.6387   -4.0152    0.0000 C   0  0  0  0  0  0  0  0  0  0  0  0
    4.2210   -4.7197    0.0000 C   0  0  0  0  0  0  0  0  0  0  0  0
    2.2320   -4.9288    0.0000 C   0  0  0  0  0  0  0  0  0  0  0  0
    3.8143   -5.6333    0.0000 C   0  0  0  0  0  0  0  0  0  0  0  0
    2.8198   -5.7378    0.0000 C   0  0  0  0  0  0  0  0  0  0  0  0
    7.2106    1.6178    0.0000 H   0  0  0  0  0  0  0  0  0  0  0  0
    4.4047    1.6178    0.0000 H   0  0  0  0  0  0  0  0  0  0  0  0
    7.2106    3.2378    0.0000 H   0  0  0  0  0  0  0  0  0  0  0  0
    4.4047    3.2378    0.0000 H   0  0  0  0  0  0  0  0  0  0  0  0
    6.3446    0.1178    0.0000 H   0  0  0  0  0  0  0  0  0  0  0  0
    4.6566   -2.9324    0.0000 H   0  0  0  0  0  0  0  0  0  0  0  0
    6.3446    5.7378    0.0000 H   0  0  0  0  0  0  0  0  0  0  0  0
    5.2707    5.7378    0.0000 H   0  0  0  0  0  0  0  0  0  0  0  0
    1.6154   -4.9936    0.0000 H   0  0  0  0  0  0  0  0  0  0  0  0
    4.1787   -6.1349    0.0000 H   0  0  0  0  0  0  0  0  0  0  0  0
    2.5676   -6.3042    0.0000 H   0  0  0  0  0  0  0  0  0  0  0  0
    2.1122    0.2623    0.0000 H   0  0  0  0  0  0  0  0  0  0  0  0
    2.0000   -0.8057    0.0000 H   0  0  0  0  0  0  0  0  0  0  0  0
  1  5  2  0  0  0  0
  1  6  2  0  0  0  0
  1 12  1  0  0  0  0
  1 15  1  0  0  0  0
  2 22  2  0  0  0  0
  3 24  1  0  0  0  0
  4 25  1  0  0  0  0
  7 14  1  0  0  0  0
  7 20  1  0  0  0  0
  7 33  1  0  0  0  0
  8  9  1  0  0  0  0
  8 21  1  0  0  0  0
  8 22  1  0  0  0  0
  9 20  2  0  0  0  0
 10 22  1  0  0  0  0
 10 23  1  0  0  0  0
 10 34  1  0  0  0  0
 11 20  1  0  0  0  0
 11 21  2  0  0  0  0
 12 35  1  0  0  0  0
 12 36  1  0  0  0  0
 13 21  1  0  0  0  0
 13 40  1  0  0  0  0
 13 41  1  0  0  0  0
 14 16  2  0  0  0  0
 14 17  1  0  0  0  0
 15 18  2  0  0  0  0
 15 19  1  0  0  0  0
 16 18  1  0  0  0  0
 16 29  1  0  0  0  0
 17 19  2  0  0  0  0
 17 30  1  0  0  0  0
 18 31  1  0  0  0  0
 19 32  1  0  0  0  0
 23 24  2  0  0  0  0
 23 25  1  0  0  0  0
 24 26  1  0  0  0  0
 25 27  2  0  0  0  0
 26 28  2  0  0  0  0
 26 37  1  0  0  0  0
 27 28  1  0  0  0  0
 27 38  1  0  0  0  0
 28 39  1  0  0  0  0
M  END
> <PUBCHEM_COMPOUND_CID>
5330812

> <PUBCHEM_COMPOUND_CANONICALIZED>
1

> <PUBCHEM_CACTVS_COMPLEXITY>
647

> <PUBCHEM_CACTVS_HBOND_ACCEPTOR>
10

> <PUBCHEM_CACTVS_HBOND_DONOR>
4

> <PUBCHEM_CACTVS_ROTATABLE_BOND>
4

> <PUBCHEM_CACTVS_SUBSKEYS>
AAADccBzsYBgAAAAAAAAAAAAAAAAAWAAAAAwYAAAAAAAAAAB0AAAHQQYQAAACAiBUAgx0YbIEAKmACRCZHDSABshAokNiBgAZIiIKCLAmZGEIAh4kAJIyCcQAAAAAAQAAAAAAAAACAAAAAAAAAAAAAAAAA==

> <PUBCHEM_IUPAC_OPENEYE_NAME>
5-amino-N-(2,6-difluorophenyl)-3-(4-sulfamoylanilino)-1,2,4-triazole-1-carbothioamide

> <PUBCHEM_IUPAC_CAS_NAME>
5-amino-N-(2,6-difluorophenyl)-3-(4-sulfamoylanilino)-1,2,4-triazole-1-carbothioamide

> <PUBCHEM_IUPAC_NAME_MARKUP>
5-amino-<I>N</I>-(2,6-difluorophenyl)-3-(4-sulfamoylanilino)-1,2,4-triazole-1-carbothioamide

> <PUBCHEM_IUPAC_NAME>
5-amino-N-(2,6-difluorophenyl)-3-(4-sulfamoylanilino)-1,2,4-triazole-1-carbothioamide

> <PUBCHEM_IUPAC_SYSTEMATIC_NAME>
5-azanyl-N-[2,6-bis(fluoranyl)phenyl]-3-[(4-sulfamoylphenyl)amino]-1,2,4-triazole-1-carbothioamide

> <PUBCHEM_IUPAC_TRADITIONAL_NAME>
5-amino-N-(2,6-difluorophenyl)-3-(4-sulfamoylanilino)-1,2,4-triazole-1-carbothioamide

> <PUBCHEM_IUPAC_INCHI>
InChI=1S/C15H13F2N7O2S2/c16-10-2-1-3-11(17)12(10)21-15(27)24-13(18)22-14(23-24)20-8-4-6-9(7-5-8)28(19,25)26/h1-7H,(H,21,27)(H2,19,25,26)(H3,18,20,22,23)

> <PUBCHEM_IUPAC_INCHIKEY>
ARIOBGGRZJITQX-UHFFFAOYSA-N

> <PUBCHEM_XLOGP3_AA>
2.2

> <PUBCHEM_EXACT_MASS>
425.05402135

> <PUBCHEM_MOLECULAR_FORMULA>
C15H13F2N7O2S2

> <PUBCHEM_MOLECULAR_WEIGHT>
425.4

> <PUBCHEM_SMILES>
C1=CC(=C(C(=C1)F)NC(=S)N2C(=NC(=N2)NC3=CC=C(C=C3)S(=O)(=O)N)N)F

> <PUBCHEM_OPENEYE_CAN_SMILES>
C1=CC(=C(C(=C1)F)NC(=S)N2C(=NC(=N2)NC3=CC=C(C=C3)S(=O)(=O)N)N)F

> <PUBCHEM_OPENEYE_ISO_SMILES>
C1=CC(=C(C(=C1)F)NC(=S)N2C(=NC(=N2)NC3=CC=C(C=C3)S(=O)(=O)N)N)F

> <PUBCHEM_CACTVS_TPSA>
181

> <PUBCHEM_MONOISOTOPIC_WEIGHT>
425.05402135

> <PUBCHEM_TOTAL_CHARGE>
0

> <PUBCHEM_HEAVY_ATOM_COUNT>
28

> <PUBCHEM_ATOM_DEF_STEREO_COUNT>
0

> <PUBCHEM_ATOM_UDEF_STEREO_COUNT>
0

> <PUBCHEM_BOND_DEF_STEREO_COUNT>
0

> <PUBCHEM_BOND_UDEF_STEREO_COUNT>
0

> <PUBCHEM_ISOTOPIC_ATOM_COUNT>
0

> <PUBCHEM_COMPONENT_COUNT>
1

> <PUBCHEM_CACTVS_TAUTO_COUNT>
-1

> <PUBCHEM_COORDINATE_TYPE>
1
5
255

> <PUBCHEM_BONDANNOTATIONS>
11  20  8
11  21  8
14  16  8
14  17  8
15  18  8
15  19  8
16  18  8
17  19  8
23  24  8
23  25  8
24  26  8
25  27  8
26  28  8
27  28  8
8  21  8
8  9  8
9  20  8

$$$$
