49830724
  -OEChem-03202502412D

 44 46  0     0  0  0  0  0  0999 V2000
    2.0000    1.6745    0.0000 Cl  0  0  0  0  0  0  0  0  0  0  0  0
    7.1962   -5.3255    0.0000 F   0  0  0  0  0  0  0  0  0  0  0  0
    5.8301   -5.6916    0.0000 F   0  0  0  0  0  0  0  0  0  0  0  0
    6.8301   -3.9595    0.0000 F   0  0  0  0  0  0  0  0  0  0  0  0
    6.6888    5.3816    0.0000 O   0  0  0  0  0  0  0  0  0  0  0  0
    7.5549    3.8816    0.0000 O   0  0  0  0  0  0  0  0  0  0  0  0
    3.7320   -1.3255    0.0000 O   0  0  0  0  0  0  0  0  0  0  0  0
    4.5981    3.1745    0.0000 N   0  0  0  0  0  0  0  0  0  0  0  0
    5.8228    3.8816    0.0000 C   0  0  0  0  0  0  0  0  0  0  0  0
    4.8569    4.1404    0.0000 C   0  0  0  0  0  0  0  0  0  0  0  0
    5.5640    2.9156    0.0000 C   0  0  0  0  0  0  0  0  0  0  0  0
    3.7320    2.6745    0.0000 C   0  0  0  0  0  0  0  0  0  0  0  0
    6.6888    4.3816    0.0000 C   0  0  0  0  0  0  0  0  0  0  0  0
    3.7320    1.6745    0.0000 C   0  0  0  0  0  0  0  0  0  0  0  0
    2.8660    1.1745    0.0000 C   0  0  0  0  0  0  0  0  0  0  0  0
    4.5981    1.1745    0.0000 C   0  0  0  0  0  0  0  0  0  0  0  0
    2.8660    0.1745    0.0000 C   0  0  0  0  0  0  0  0  0  0  0  0
    4.5981    0.1745    0.0000 C   0  0  0  0  0  0  0  0  0  0  0  0
    3.7320   -0.3255    0.0000 C   0  0  0  0  0  0  0  0  0  0  0  0
    4.5981   -1.8255    0.0000 C   0  0  0  0  0  0  0  0  0  0  0  0
    4.5981   -2.8255    0.0000 C   0  0  0  0  0  0  0  0  0  0  0  0
    5.4641   -3.3255    0.0000 C   0  0  0  0  0  0  0  0  0  0  0  0
    5.4641   -4.3255    0.0000 C   0  0  0  0  0  0  0  0  0  0  0  0
    3.7320   -3.3255    0.0000 C   0  0  0  0  0  0  0  0  0  0  0  0
    4.5981   -4.8255    0.0000 C   0  0  0  0  0  0  0  0  0  0  0  0
    3.7320   -4.3255    0.0000 C   0  0  0  0  0  0  0  0  0  0  0  0
    6.3301   -4.8255    0.0000 C   0  0  0  0  0  0  0  0  0  0  0  0
    6.3147    3.5041    0.0000 H   0  0  0  0  0  0  0  0  0  0  0  0
    5.0174    4.7393    0.0000 H   0  0  0  0  0  0  0  0  0  0  0  0
    4.2580    4.3008    0.0000 H   0  0  0  0  0  0  0  0  0  0  0  0
    5.4035    2.3168    0.0000 H   0  0  0  0  0  0  0  0  0  0  0  0
    6.1629    2.7552    0.0000 H   0  0  0  0  0  0  0  0  0  0  0  0
    3.5200    3.2571    0.0000 H   0  0  0  0  0  0  0  0  0  0  0  0
    3.1215    2.5668    0.0000 H   0  0  0  0  0  0  0  0  0  0  0  0
    5.1350    1.4845    0.0000 H   0  0  0  0  0  0  0  0  0  0  0  0
    7.2258    5.6916    0.0000 H   0  0  0  0  0  0  0  0  0  0  0  0
    2.3291   -0.1355    0.0000 H   0  0  0  0  0  0  0  0  0  0  0  0
    5.1350   -0.1355    0.0000 H   0  0  0  0  0  0  0  0  0  0  0  0
    5.2087   -1.9332    0.0000 H   0  0  0  0  0  0  0  0  0  0  0  0
    4.8101   -1.2429    0.0000 H   0  0  0  0  0  0  0  0  0  0  0  0
    6.0010   -3.0155    0.0000 H   0  0  0  0  0  0  0  0  0  0  0  0
    3.1951   -3.0155    0.0000 H   0  0  0  0  0  0  0  0  0  0  0  0
    4.5981   -5.4455    0.0000 H   0  0  0  0  0  0  0  0  0  0  0  0
    3.1951   -4.6355    0.0000 H   0  0  0  0  0  0  0  0  0  0  0  0
  1 15  1  0  0  0  0
  2 27  1  0  0  0  0
  3 27  1  0  0  0  0
  4 27  1  0  0  0  0
  5 13  1  0  0  0  0
  5 36  1  0  0  0  0
  6 13  2  0  0  0  0
  7 19  1  0  0  0  0
  7 20  1  0  0  0  0
  8 10  1  0  0  0  0
  8 11  1  0  0  0  0
  8 12  1  0  0  0  0
  9 10  1  0  0  0  0
  9 11  1  0  0  0  0
  9 13  1  0  0  0  0
  9 28  1  0  0  0  0
 10 29  1  0  0  0  0
 10 30  1  0  0  0  0
 11 31  1  0  0  0  0
 11 32  1  0  0  0  0
 12 14  1  0  0  0  0
 12 33  1  0  0  0  0
 12 34  1  0  0  0  0
 14 15  2  0  0  0  0
 14 16  1  0  0  0  0
 15 17  1  0  0  0  0
 16 18  2  0  0  0  0
 16 35  1  0  0  0  0
 17 19  2  0  0  0  0
 17 37  1  0  0  0  0
 18 19  1  0  0  0  0
 18 38  1  0  0  0  0
 20 21  1  0  0  0  0
 20 39  1  0  0  0  0
 20 40  1  0  0  0  0
 21 22  2  0  0  0  0
 21 24  1  0  0  0  0
 22 23  1  0  0  0  0
 22 41  1  0  0  0  0
 23 25  2  0  0  0  0
 23 27  1  0  0  0  0
 24 26  2  0  0  0  0
 24 42  1  0  0  0  0
 25 26  1  0  0  0  0
 25 43  1  0  0  0  0
 26 44  1  0  0  0  0
M  END
> <PUBCHEM_COMPOUND_CID>
49830724

> <PUBCHEM_COMPOUND_CANONICALIZED>
1

> <PUBCHEM_CACTVS_COMPLEXITY>
513

> <PUBCHEM_CACTVS_HBOND_ACCEPTOR>
7

> <PUBCHEM_CACTVS_HBOND_DONOR>
1

> <PUBCHEM_CACTVS_ROTATABLE_BOND>
6

> <PUBCHEM_CACTVS_SUBSKEYS>
AAADceB6MYAEAAAAAAAAAAAAAABYAAAAAAAwYAAAAAAAAAABQAAAHwIACAAADQbhmDYwDoMABgCIAiDSCACCCAAgJQAIiAEODogMJiqFsxuGeCjmwBGIqAeQ0GIOIAACAQABAABAAAQCAAIAAAAAAAAAAA==

> <PUBCHEM_IUPAC_OPENEYE_NAME>
1-[[2-chloro-4-[[3-(trifluoromethyl)phenyl]methoxy]phenyl]methyl]azetidine-3-carboxylic acid

> <PUBCHEM_IUPAC_CAS_NAME>
1-[[2-chloro-4-[[3-(trifluoromethyl)phenyl]methoxy]phenyl]methyl]-3-azetidinecarboxylic acid

> <PUBCHEM_IUPAC_NAME_MARKUP>
1-[[2-chloro-4-[[3-(trifluoromethyl)phenyl]methoxy]phenyl]methyl]azetidine-3-carboxylic acid

> <PUBCHEM_IUPAC_NAME>
1-[[2-chloro-4-[[3-(trifluoromethyl)phenyl]methoxy]phenyl]methyl]azetidine-3-carboxylic acid

> <PUBCHEM_IUPAC_SYSTEMATIC_NAME>
1-[[2-chloranyl-4-[[3-(trifluoromethyl)phenyl]methoxy]phenyl]methyl]azetidine-3-carboxylic acid

> <PUBCHEM_IUPAC_TRADITIONAL_NAME>
1-[2-chloro-4-[3-(trifluoromethyl)benzyl]oxy-benzyl]azetidine-3-carboxylic acid

> <PUBCHEM_IUPAC_INCHI>
InChI=1S/C19H17ClF3NO3/c20-17-7-16(5-4-13(17)8-24-9-14(10-24)18(25)26)27-11-12-2-1-3-15(6-12)19(21,22)23/h1-7,14H,8-11H2,(H,25,26)

> <PUBCHEM_IUPAC_INCHIKEY>
DBFCGNXJRISFMI-UHFFFAOYSA-N

> <PUBCHEM_XLOGP3_AA>
1.8

> <PUBCHEM_EXACT_MASS>
399.0849056

> <PUBCHEM_MOLECULAR_FORMULA>
C19H17ClF3NO3

> <PUBCHEM_MOLECULAR_WEIGHT>
399.8

> <PUBCHEM_SMILES>
C1C(CN1CC2=C(C=C(C=C2)OCC3=CC(=CC=C3)C(F)(F)F)Cl)C(=O)O

> <PUBCHEM_OPENEYE_CAN_SMILES>
C1C(CN1CC2=C(C=C(C=C2)OCC3=CC(=CC=C3)C(F)(F)F)Cl)C(=O)O

> <PUBCHEM_OPENEYE_ISO_SMILES>
C1C(CN1CC2=C(C=C(C=C2)OCC3=CC(=CC=C3)C(F)(F)F)Cl)C(=O)O

> <PUBCHEM_CACTVS_TPSA>
49.8

> <PUBCHEM_MONOISOTOPIC_WEIGHT>
399.0849056

> <PUBCHEM_TOTAL_CHARGE>
0

> <PUBCHEM_HEAVY_ATOM_COUNT>
27

> <PUBCHEM_ATOM_DEF_STEREO_COUNT>
0

> <PUBCHEM_ATOM_UDEF_STEREO_COUNT>
0

> <PUBCHEM_BOND_DEF_STEREO_COUNT>
0

> <PUBCHEM_BOND_UDEF_STEREO_COUNT>
0

> <PUBCHEM_ISOTOPIC_ATOM_COUNT>
0

> <PUBCHEM_COMPONENT_COUNT>
1

> <PUBCHEM_CACTVS_TAUTO_COUNT>
-1

> <PUBCHEM_COORDINATE_TYPE>
1
5
255

> <PUBCHEM_BONDANNOTATIONS>
14  15  8
14  16  8
15  17  8
16  18  8
17  19  8
18  19  8
21  22  8
21  24  8
22  23  8
23  25  8
24  26  8
25  26  8

$$$$
