11719305
  -OEChem-03202505572D

 54 56  0     1  0  0  0  0  0999 V2000
   11.1787   -3.5272    0.0000 Cl  0  0  0  0  0  0  0  0  0  0  0  0
    9.4584   -2.5072    0.0000 F   0  0  0  0  0  0  0  0  0  0  0  0
    3.4030   -0.9728    0.0000 O   0  0  0  0  0  0  0  0  0  0  0  0
    6.0010    2.5272    0.0000 O   0  0  0  0  0  0  0  0  0  0  0  0
    3.4030    2.0272    0.0000 O   0  0  0  0  0  0  0  0  0  0  0  0
    5.1350    1.0272    0.0000 N   0  0  3  0  0  0  0  0  0  0  0  0
    9.4815   -0.5074    0.0000 N   0  0  0  0  0  0  0  0  0  0  0  0
    9.4931    2.5619    0.0000 N   0  0  0  0  0  0  0  0  0  0  0  0
    2.5369    0.5272    0.0000 N   0  0  0  0  0  0  0  0  0  0  0  0
   10.3991    1.0064    0.0000 N   0  0  0  0  0  0  0  0  0  0  0  0
    4.2690    0.5272    0.0000 C   0  0  1  0  0  0  0  0  0  0  0  0
    6.0010    0.5272    0.0000 C   0  0  0  0  0  0  0  0  0  0  0  0
    6.8671    1.0272    0.0000 C   0  0  0  0  0  0  0  0  0  0  0  0
    4.2690   -0.4728    0.0000 C   0  0  0  0  0  0  0  0  0  0  0  0
    7.7331    0.5272    0.0000 C   0  0  0  0  0  0  0  0  0  0  0  0
    5.1350    2.0272    0.0000 C   0  0  0  0  0  0  0  0  0  0  0  0
    6.8671    2.0272    0.0000 C   0  0  0  0  0  0  0  0  0  0  0  0
    8.5991    1.0272    0.0000 C   0  0  0  0  0  0  0  0  0  0  0  0
    3.4030    1.0272    0.0000 C   0  0  0  0  0  0  0  0  0  0  0  0
    8.5991    2.0272    0.0000 C   0  0  0  0  0  0  0  0  0  0  0  0
    7.7331    2.5272    0.0000 C   0  0  0  0  0  0  0  0  0  0  0  0
    9.4931    0.4926    0.0000 C   0  0  0  0  0  0  0  0  0  0  0  0
   10.3991    2.0480    0.0000 C   0  0  0  0  0  0  0  0  0  0  0  0
   10.3417   -1.0174    0.0000 C   0  0  0  0  0  0  0  0  0  0  0  0
    3.4030   -1.9728    0.0000 C   0  0  0  0  0  0  0  0  0  0  0  0
    6.0010    3.5272    0.0000 C   0  0  0  0  0  0  0  0  0  0  0  0
   10.3301   -2.0173    0.0000 C   0  0  0  0  0  0  0  0  0  0  0  0
   11.2134   -0.5274    0.0000 C   0  0  0  0  0  0  0  0  0  0  0  0
   11.1903   -2.5273    0.0000 C   0  0  0  0  0  0  0  0  0  0  0  0
   12.0736   -1.0374    0.0000 C   0  0  0  0  0  0  0  0  0  0  0  0
   12.0620   -2.0373    0.0000 C   0  0  0  0  0  0  0  0  0  0  0  0
    4.8059    0.2172    0.0000 H   0  0  0  0  0  0  0  0  0  0  0  0
    5.6025    0.0523    0.0000 H   0  0  0  0  0  0  0  0  0  0  0  0
    6.3996    0.0523    0.0000 H   0  0  0  0  0  0  0  0  0  0  0  0
    4.4810   -1.0554    0.0000 H   0  0  0  0  0  0  0  0  0  0  0  0
    4.8796   -0.3651    0.0000 H   0  0  0  0  0  0  0  0  0  0  0  0
    7.7331   -0.0928    0.0000 H   0  0  0  0  0  0  0  0  0  0  0  0
    5.7550    2.0272    0.0000 H   0  0  0  0  0  0  0  0  0  0  0  0
    5.1350    2.6472    0.0000 H   0  0  0  0  0  0  0  0  0  0  0  0
    4.5150    2.0272    0.0000 H   0  0  0  0  0  0  0  0  0  0  0  0
    7.7331    3.1472    0.0000 H   0  0  0  0  0  0  0  0  0  0  0  0
    8.9410   -0.8112    0.0000 H   0  0  0  0  0  0  0  0  0  0  0  0
    2.0000    0.8372    0.0000 H   0  0  0  0  0  0  0  0  0  0  0  0
    2.5369   -0.0928    0.0000 H   0  0  0  0  0  0  0  0  0  0  0  0
   10.9349    2.3601    0.0000 H   0  0  0  0  0  0  0  0  0  0  0  0
    2.7830   -1.9728    0.0000 H   0  0  0  0  0  0  0  0  0  0  0  0
    3.4030   -2.5928    0.0000 H   0  0  0  0  0  0  0  0  0  0  0  0
    4.0230   -1.9728    0.0000 H   0  0  0  0  0  0  0  0  0  0  0  0
    6.6210    3.5272    0.0000 H   0  0  0  0  0  0  0  0  0  0  0  0
    6.0010    4.1472    0.0000 H   0  0  0  0  0  0  0  0  0  0  0  0
    5.3810    3.5272    0.0000 H   0  0  0  0  0  0  0  0  0  0  0  0
   11.2206    0.0925    0.0000 H   0  0  0  0  0  0  0  0  0  0  0  0
   12.6141   -0.7336    0.0000 H   0  0  0  0  0  0  0  0  0  0  0  0
   12.5954   -2.3535    0.0000 H   0  0  0  0  0  0  0  0  0  0  0  0
  1 29  1  0  0  0  0
  2 27  1  0  0  0  0
  3 14  1  0  0  0  0
  3 25  1  0  0  0  0
  4 17  1  0  0  0  0
  4 26  1  0  0  0  0
  5 19  2  0  0  0  0
 11  6  1  1  0  0  0
  6 12  1  0  0  0  0
  6 16  1  0  0  0  0
  7 22  1  0  0  0  0
  7 24  1  0  0  0  0
  7 42  1  0  0  0  0
  8 20  1  0  0  0  0
  8 23  2  0  0  0  0
  9 19  1  0  0  0  0
  9 43  1  0  0  0  0
  9 44  1  0  0  0  0
 10 22  2  0  0  0  0
 10 23  1  0  0  0  0
 11 14  1  0  0  0  0
 11 19  1  0  0  0  0
 11 32  1  0  0  0  0
 12 13  1  0  0  0  0
 12 33  1  0  0  0  0
 12 34  1  0  0  0  0
 13 15  2  0  0  0  0
 13 17  1  0  0  0  0
 14 35  1  0  0  0  0
 14 36  1  0  0  0  0
 15 18  1  0  0  0  0
 15 37  1  0  0  0  0
 16 38  1  0  0  0  0
 16 39  1  0  0  0  0
 16 40  1  0  0  0  0
 17 21  2  0  0  0  0
 18 20  2  0  0  0  0
 18 22  1  0  0  0  0
 20 21  1  0  0  0  0
 21 41  1  0  0  0  0
 23 45  1  0  0  0  0
 24 27  2  0  0  0  0
 24 28  1  0  0  0  0
 25 46  1  0  0  0  0
 25 47  1  0  0  0  0
 25 48  1  0  0  0  0
 26 49  1  0  0  0  0
 26 50  1  0  0  0  0
 26 51  1  0  0  0  0
 27 29  1  0  0  0  0
 28 30  2  0  0  0  0
 28 52  1  0  0  0  0
 29 31  2  0  0  0  0
 30 31  1  0  0  0  0
 30 53  1  0  0  0  0
 31 54  1  0  0  0  0
M  END
> <PUBCHEM_COMPOUND_CID>
11719305

> <PUBCHEM_COMPOUND_CANONICALIZED>
1

> <PUBCHEM_CACTVS_COMPLEXITY>
591

> <PUBCHEM_CACTVS_HBOND_ACCEPTOR>
8

> <PUBCHEM_CACTVS_HBOND_DONOR>
2

> <PUBCHEM_CACTVS_ROTATABLE_BOND>
9

> <PUBCHEM_CACTVS_SUBSKEYS>
AAADceB7sQAEAAAAAAAAAAAAAAAAAAAAAAA8YIAAAAAAAACx9AAAHwIQAAAADC7hni439vfIFACoAydzdACCiCkxJ6AJ2CG+bpiObubF+/uVNChu8BvY6CeQ0GMOKAACAgIKAABQAAQEBBQAAAAAAAAAAA==

> <PUBCHEM_IUPAC_OPENEYE_NAME>
(2S)-2-[[4-(3-chloro-2-fluoro-anilino)-7-methoxy-quinazolin-6-yl]methyl-methyl-amino]-3-methoxy-propanamide

> <PUBCHEM_IUPAC_CAS_NAME>
(2S)-2-[[4-(3-chloro-2-fluoroanilino)-7-methoxy-6-quinazolinyl]methyl-methylamino]-3-methoxypropanamide

> <PUBCHEM_IUPAC_NAME_MARKUP>
(2<I>S</I>)-2-[[4-(3-chloro-2-fluoroanilino)-7-methoxyquinazolin-6-yl]methyl-methylamino]-3-methoxypropanamide

> <PUBCHEM_IUPAC_NAME>
(2S)-2-[[4-(3-chloro-2-fluoroanilino)-7-methoxyquinazolin-6-yl]methyl-methylamino]-3-methoxypropanamide

> <PUBCHEM_IUPAC_SYSTEMATIC_NAME>
(2S)-2-[[4-[(3-chloranyl-2-fluoranyl-phenyl)amino]-7-methoxy-quinazolin-6-yl]methyl-methyl-amino]-3-methoxy-propanamide

> <PUBCHEM_IUPAC_TRADITIONAL_NAME>
(2S)-2-[[4-(3-chloro-2-fluoro-anilino)-7-methoxy-quinazolin-6-yl]methyl-methyl-amino]-3-methoxy-propionamide

> <PUBCHEM_IUPAC_INCHI>
InChI=1S/C21H23ClFN5O3/c1-28(17(10-30-2)20(24)29)9-12-7-13-16(8-18(12)31-3)25-11-26-21(13)27-15-6-4-5-14(22)19(15)23/h4-8,11,17H,9-10H2,1-3H3,(H2,24,29)(H,25,26,27)/t17-/m0/s1

> <PUBCHEM_IUPAC_INCHIKEY>
LJNUYDJKKBIGJB-KRWDZBQOSA-N

> <PUBCHEM_XLOGP3_AA>
2.8

> <PUBCHEM_EXACT_MASS>
447.1473455

> <PUBCHEM_MOLECULAR_FORMULA>
C21H23ClFN5O3

> <PUBCHEM_MOLECULAR_WEIGHT>
447.9

> <PUBCHEM_SMILES>
CN(CC1=CC2=C(C=C1OC)N=CN=C2NC3=C(C(=CC=C3)Cl)F)[C@@H](COC)C(=O)N

> <PUBCHEM_OPENEYE_CAN_SMILES>
CN(CC1=CC2=C(C=C1OC)N=CN=C2NC3=C(C(=CC=C3)Cl)F)C(COC)C(=O)N

> <PUBCHEM_OPENEYE_ISO_SMILES>
CN(CC1=CC2=C(C=C1OC)N=CN=C2NC3=C(C(=CC=C3)Cl)F)[C@@H](COC)C(=O)N

> <PUBCHEM_CACTVS_TPSA>
103

> <PUBCHEM_MONOISOTOPIC_WEIGHT>
447.1473455

> <PUBCHEM_TOTAL_CHARGE>
0

> <PUBCHEM_HEAVY_ATOM_COUNT>
31

> <PUBCHEM_ATOM_DEF_STEREO_COUNT>
1

> <PUBCHEM_ATOM_UDEF_STEREO_COUNT>
0

> <PUBCHEM_BOND_DEF_STEREO_COUNT>
0

> <PUBCHEM_BOND_UDEF_STEREO_COUNT>
0

> <PUBCHEM_ISOTOPIC_ATOM_COUNT>
0

> <PUBCHEM_COMPONENT_COUNT>
1

> <PUBCHEM_CACTVS_TAUTO_COUNT>
-1

> <PUBCHEM_COORDINATE_TYPE>
1
5
255

> <PUBCHEM_BONDANNOTATIONS>
10  22  8
10  23  8
13  15  8
13  17  8
15  18  8
17  21  8
18  20  8
18  22  8
20  21  8
24  27  8
24  28  8
27  29  8
28  30  8
29  31  8
30  31  8
11  6  5
8  20  8
8  23  8

$$$$
