11196984
  -OEChem-03202501562D

 38 40  0     0  0  0  0  0  0999 V2000
    6.3301   -1.7500    0.0000 O   0  0  0  0  0  0  0  0  0  0  0  0
    4.5981   -1.7500    0.0000 N   0  0  0  0  0  0  0  0  0  0  0  0
    5.4641    4.7500    0.0000 N   0  0  0  0  0  0  0  0  0  0  0  0
    5.4641    1.7500    0.0000 C   0  0  0  0  0  0  0  0  0  0  0  0
    4.5981   -2.7500    0.0000 C   0  0  0  0  0  0  0  0  0  0  0  0
    5.4641   -0.2500    0.0000 C   0  0  0  0  0  0  0  0  0  0  0  0
    3.7320   -3.2500    0.0000 C   0  0  0  0  0  0  0  0  0  0  0  0
    5.4641    2.7500    0.0000 C   0  0  0  0  0  0  0  0  0  0  0  0
    6.3301    1.2500    0.0000 C   0  0  0  0  0  0  0  0  0  0  0  0
    4.5981    1.2500    0.0000 C   0  0  0  0  0  0  0  0  0  0  0  0
    6.3301    0.2500    0.0000 C   0  0  0  0  0  0  0  0  0  0  0  0
    4.5981    0.2500    0.0000 C   0  0  0  0  0  0  0  0  0  0  0  0
    5.4641   -1.2500    0.0000 C   0  0  0  0  0  0  0  0  0  0  0  0
    2.8660   -2.7500    0.0000 C   0  0  0  0  0  0  0  0  0  0  0  0
    3.7320   -4.2500    0.0000 C   0  0  0  0  0  0  0  0  0  0  0  0
    4.5981    3.2500    0.0000 C   0  0  0  0  0  0  0  0  0  0  0  0
    6.3301    3.2500    0.0000 C   0  0  0  0  0  0  0  0  0  0  0  0
    2.0000   -3.2500    0.0000 C   0  0  0  0  0  0  0  0  0  0  0  0
    2.8660   -4.7500    0.0000 C   0  0  0  0  0  0  0  0  0  0  0  0
    2.0000   -4.2500    0.0000 C   0  0  0  0  0  0  0  0  0  0  0  0
    4.5981    4.2500    0.0000 C   0  0  0  0  0  0  0  0  0  0  0  0
    6.3301    4.2500    0.0000 C   0  0  0  0  0  0  0  0  0  0  0  0
    4.8101   -3.3326    0.0000 H   0  0  0  0  0  0  0  0  0  0  0  0
    5.2087   -2.6423    0.0000 H   0  0  0  0  0  0  0  0  0  0  0  0
    6.8671    1.5600    0.0000 H   0  0  0  0  0  0  0  0  0  0  0  0
    4.0611    1.5600    0.0000 H   0  0  0  0  0  0  0  0  0  0  0  0
    4.0611   -1.4400    0.0000 H   0  0  0  0  0  0  0  0  0  0  0  0
    6.8671   -0.0600    0.0000 H   0  0  0  0  0  0  0  0  0  0  0  0
    4.0611   -0.0600    0.0000 H   0  0  0  0  0  0  0  0  0  0  0  0
    2.8660   -2.1300    0.0000 H   0  0  0  0  0  0  0  0  0  0  0  0
    4.2690   -4.5600    0.0000 H   0  0  0  0  0  0  0  0  0  0  0  0
    4.0611    2.9400    0.0000 H   0  0  0  0  0  0  0  0  0  0  0  0
    6.8671    2.9400    0.0000 H   0  0  0  0  0  0  0  0  0  0  0  0
    1.4631   -2.9400    0.0000 H   0  0  0  0  0  0  0  0  0  0  0  0
    2.8660   -5.3700    0.0000 H   0  0  0  0  0  0  0  0  0  0  0  0
    1.4631   -4.5600    0.0000 H   0  0  0  0  0  0  0  0  0  0  0  0
    4.0611    4.5600    0.0000 H   0  0  0  0  0  0  0  0  0  0  0  0
    6.8671    4.5600    0.0000 H   0  0  0  0  0  0  0  0  0  0  0  0
  1 13  2  0  0  0  0
  2  5  1  0  0  0  0
  2 13  1  0  0  0  0
  2 27  1  0  0  0  0
  3 21  2  0  0  0  0
  3 22  1  0  0  0  0
  4  8  1  0  0  0  0
  4  9  2  0  0  0  0
  4 10  1  0  0  0  0
  5  7  1  0  0  0  0
  5 23  1  0  0  0  0
  5 24  1  0  0  0  0
  6 11  2  0  0  0  0
  6 12  1  0  0  0  0
  6 13  1  0  0  0  0
  7 14  2  0  0  0  0
  7 15  1  0  0  0  0
  8 16  2  0  0  0  0
  8 17  1  0  0  0  0
  9 11  1  0  0  0  0
  9 25  1  0  0  0  0
 10 12  2  0  0  0  0
 10 26  1  0  0  0  0
 11 28  1  0  0  0  0
 12 29  1  0  0  0  0
 14 18  1  0  0  0  0
 14 30  1  0  0  0  0
 15 19  2  0  0  0  0
 15 31  1  0  0  0  0
 16 21  1  0  0  0  0
 16 32  1  0  0  0  0
 17 22  2  0  0  0  0
 17 33  1  0  0  0  0
 18 20  2  0  0  0  0
 18 34  1  0  0  0  0
 19 20  1  0  0  0  0
 19 35  1  0  0  0  0
 20 36  1  0  0  0  0
 21 37  1  0  0  0  0
 22 38  1  0  0  0  0
M  END
> <PUBCHEM_COMPOUND_CID>
11196984

> <PUBCHEM_COMPOUND_CANONICALIZED>
1

> <PUBCHEM_CACTVS_COMPLEXITY>
337

> <PUBCHEM_CACTVS_HBOND_ACCEPTOR>
2

> <PUBCHEM_CACTVS_HBOND_DONOR>
1

> <PUBCHEM_CACTVS_ROTATABLE_BOND>
4

> <PUBCHEM_CACTVS_SUBSKEYS>
AAADceB7IAAAAAAAAAAAAAAAAAAAAAAAAAA8YIAAAAAAAAAB0AAAHgAQAAAADADBmgQ8gJLIEACoAjF3VACCgCA1AiAI2KE4ZNgIIHLAlZGEIQhghgDIyYcYiMCOwAAAAAAAAACAAAAAAAAAAAAAAAAAAA==

> <PUBCHEM_IUPAC_OPENEYE_NAME>
N-benzyl-4-(4-pyridyl)benzamide

> <PUBCHEM_IUPAC_CAS_NAME>
N-(phenylmethyl)-4-pyridin-4-ylbenzamide

> <PUBCHEM_IUPAC_NAME_MARKUP>
<I>N</I>-benzyl-4-pyridin-4-ylbenzamide

> <PUBCHEM_IUPAC_NAME>
N-benzyl-4-pyridin-4-ylbenzamide

> <PUBCHEM_IUPAC_SYSTEMATIC_NAME>
N-(phenylmethyl)-4-pyridin-4-yl-benzamide

> <PUBCHEM_IUPAC_TRADITIONAL_NAME>
N-benzyl-4-(4-pyridyl)benzamide

> <PUBCHEM_IUPAC_INCHI>
InChI=1S/C19H16N2O/c22-19(21-14-15-4-2-1-3-5-15)18-8-6-16(7-9-18)17-10-12-20-13-11-17/h1-13H,14H2,(H,21,22)

> <PUBCHEM_IUPAC_INCHIKEY>
SYSUZXPGQXEWCZ-UHFFFAOYSA-N

> <PUBCHEM_XLOGP3>
2.8

> <PUBCHEM_EXACT_MASS>
288.126263138

> <PUBCHEM_MOLECULAR_FORMULA>
C19H16N2O

> <PUBCHEM_MOLECULAR_WEIGHT>
288.3

> <PUBCHEM_SMILES>
C1=CC=C(C=C1)CNC(=O)C2=CC=C(C=C2)C3=CC=NC=C3

> <PUBCHEM_OPENEYE_CAN_SMILES>
C1=CC=C(C=C1)CNC(=O)C2=CC=C(C=C2)C3=CC=NC=C3

> <PUBCHEM_OPENEYE_ISO_SMILES>
C1=CC=C(C=C1)CNC(=O)C2=CC=C(C=C2)C3=CC=NC=C3

> <PUBCHEM_CACTVS_TPSA>
42

> <PUBCHEM_MONOISOTOPIC_WEIGHT>
288.126263138

> <PUBCHEM_TOTAL_CHARGE>
0

> <PUBCHEM_HEAVY_ATOM_COUNT>
22

> <PUBCHEM_ATOM_DEF_STEREO_COUNT>
0

> <PUBCHEM_ATOM_UDEF_STEREO_COUNT>
0

> <PUBCHEM_BOND_DEF_STEREO_COUNT>
0

> <PUBCHEM_BOND_UDEF_STEREO_COUNT>
0

> <PUBCHEM_ISOTOPIC_ATOM_COUNT>
0

> <PUBCHEM_COMPONENT_COUNT>
1

> <PUBCHEM_CACTVS_TAUTO_COUNT>
-1

> <PUBCHEM_COORDINATE_TYPE>
1
5
255

> <PUBCHEM_BONDANNOTATIONS>
10  12  8
14  18  8
15  19  8
16  21  8
17  22  8
18  20  8
19  20  8
3  21  8
3  22  8
4  10  8
4  9  8
6  11  8
6  12  8
7  14  8
7  15  8
8  16  8
8  17  8
9  11  8

$$$$
