49830576
  -OEChem-03202502272D

 66 70  0     0  0  0  0  0  0999 V2000
    2.9567   -0.0774    0.0000 S   0  0  0  0  0  0  0  0  0  0  0  0
    7.5442    2.1279    0.0000 O   0  0  0  0  0  0  0  0  0  0  0  0
   13.7074    2.6133    0.0000 O   0  0  0  0  0  0  0  0  0  0  0  0
   14.7412   -0.6930    0.0000 O   0  0  0  0  0  0  0  0  0  0  0  0
   15.1788    1.2586    0.0000 O   0  0  0  0  0  0  0  0  0  0  0  0
    3.2478    0.8793    0.0000 O   0  0  0  0  0  0  0  0  0  0  0  0
    2.6656   -1.0341    0.0000 O   0  0  0  0  0  0  0  0  0  0  0  0
    8.4780   -0.9637    0.0000 N   0  0  0  0  0  0  0  0  0  0  0  0
    8.9780    1.2270    0.0000 N   0  0  0  0  0  0  0  0  0  0  0  0
    3.9134   -0.3684    0.0000 N   0  0  0  0  0  0  0  0  0  0  0  0
    7.5770   -0.5298    0.0000 C   0  0  0  0  0  0  0  0  0  0  0  0
    9.3790   -0.5298    0.0000 C   0  0  0  0  0  0  0  0  0  0  0  0
    9.6015    0.4451    0.0000 C   0  0  0  0  0  0  0  0  0  0  0  0
    7.3545    0.4452    0.0000 C   0  0  0  0  0  0  0  0  0  0  0  0
    5.8268   -0.9506    0.0000 C   0  0  0  0  0  0  0  0  0  0  0  0
    6.8245   -1.2499    0.0000 C   0  0  0  0  0  0  0  0  0  0  0  0
   11.3610    0.0649    0.0000 C   0  0  0  0  0  0  0  0  0  0  0  0
   10.5920    0.7675    0.0000 C   0  0  0  0  0  0  0  0  0  0  0  0
    5.0964   -1.6336    0.0000 C   0  0  0  0  0  0  0  0  0  0  0  0
    7.9780    1.2270    0.0000 C   0  0  0  0  0  0  0  0  0  0  0  0
   10.1315   -1.2500    0.0000 C   0  0  0  0  0  0  0  0  0  0  0  0
    6.3640    0.7675    0.0000 C   0  0  0  0  0  0  0  0  0  0  0  0
    5.5950    0.0649    0.0000 C   0  0  0  0  0  0  0  0  0  0  0  0
   12.3155    0.3633    0.0000 C   0  0  0  0  0  0  0  0  0  0  0  0
   11.1292   -0.9506    0.0000 C   0  0  0  0  0  0  0  0  0  0  0  0
    4.1397   -1.3425    0.0000 C   0  0  0  0  0  0  0  0  0  0  0  0
    5.3226   -2.6076    0.0000 C   0  0  0  0  0  0  0  0  0  0  0  0
   13.0511   -0.3140    0.0000 C   0  0  0  0  0  0  0  0  0  0  0  0
   12.5342    1.3391    0.0000 C   0  0  0  0  0  0  0  0  0  0  0  0
    3.4092   -2.0255    0.0000 C   0  0  0  0  0  0  0  0  0  0  0  0
   13.4887    1.6375    0.0000 C   0  0  0  0  0  0  0  0  0  0  0  0
   14.0055   -0.0156    0.0000 C   0  0  0  0  0  0  0  0  0  0  0  0
   14.2243    0.9602    0.0000 C   0  0  0  0  0  0  0  0  0  0  0  0
    4.5922   -3.2906    0.0000 C   0  0  0  0  0  0  0  0  0  0  0  0
    3.6355   -2.9996    0.0000 C   0  0  0  0  0  0  0  0  0  0  0  0
    2.0000    0.2137    0.0000 C   0  0  0  0  0  0  0  0  0  0  0  0
   12.9718    3.2906    0.0000 C   0  0  0  0  0  0  0  0  0  0  0  0
   14.5224   -1.6687    0.0000 C   0  0  0  0  0  0  0  0  0  0  0  0
   15.9144    0.5812    0.0000 C   0  0  0  0  0  0  0  0  0  0  0  0
    8.4780   -1.5837    0.0000 H   0  0  0  0  0  0  0  0  0  0  0  0
    6.9694   -1.8528    0.0000 H   0  0  0  0  0  0  0  0  0  0  0  0
   10.7230    1.3735    0.0000 H   0  0  0  0  0  0  0  0  0  0  0  0
    9.2470    1.7856    0.0000 H   0  0  0  0  0  0  0  0  0  0  0  0
    9.9866   -1.8528    0.0000 H   0  0  0  0  0  0  0  0  0  0  0  0
    6.2331    1.3735    0.0000 H   0  0  0  0  0  0  0  0  0  0  0  0
    5.0033    0.2500    0.0000 H   0  0  0  0  0  0  0  0  0  0  0  0
   11.5821   -1.3741    0.0000 H   0  0  0  0  0  0  0  0  0  0  0  0
    5.9158   -2.7881    0.0000 H   0  0  0  0  0  0  0  0  0  0  0  0
   12.9155   -0.9190    0.0000 H   0  0  0  0  0  0  0  0  0  0  0  0
   12.0781    1.7590    0.0000 H   0  0  0  0  0  0  0  0  0  0  0  0
    4.3663    0.0550    0.0000 H   0  0  0  0  0  0  0  0  0  0  0  0
    2.8161   -1.8450    0.0000 H   0  0  0  0  0  0  0  0  0  0  0  0
    4.7325   -3.8946    0.0000 H   0  0  0  0  0  0  0  0  0  0  0  0
    3.1826   -3.4230    0.0000 H   0  0  0  0  0  0  0  0  0  0  0  0
    2.1805    0.8069    0.0000 H   0  0  0  0  0  0  0  0  0  0  0  0
    1.4068    0.3942    0.0000 H   0  0  0  0  0  0  0  0  0  0  0  0
    1.8195   -0.3794    0.0000 H   0  0  0  0  0  0  0  0  0  0  0  0
   13.3917    3.7468    0.0000 H   0  0  0  0  0  0  0  0  0  0  0  0
   12.5156    3.7106    0.0000 H   0  0  0  0  0  0  0  0  0  0  0  0
   12.5518    2.8345    0.0000 H   0  0  0  0  0  0  0  0  0  0  0  0
   13.9175   -1.5331    0.0000 H   0  0  0  0  0  0  0  0  0  0  0  0
   14.3868   -2.2737    0.0000 H   0  0  0  0  0  0  0  0  0  0  0  0
   15.1274   -1.8044    0.0000 H   0  0  0  0  0  0  0  0  0  0  0  0
   15.4945    0.1251    0.0000 H   0  0  0  0  0  0  0  0  0  0  0  0
   16.3705    0.1613    0.0000 H   0  0  0  0  0  0  0  0  0  0  0  0
   16.3344    1.0374    0.0000 H   0  0  0  0  0  0  0  0  0  0  0  0
  1  6  2  0  0  0  0
  1  7  2  0  0  0  0
  1 10  1  0  0  0  0
  1 36  1  0  0  0  0
  2 20  2  0  0  0  0
  3 31  1  0  0  0  0
  3 37  1  0  0  0  0
  4 32  1  0  0  0  0
  4 38  1  0  0  0  0
  5 33  1  0  0  0  0
  5 39  1  0  0  0  0
  8 11  1  0  0  0  0
  8 12  1  0  0  0  0
  8 40  1  0  0  0  0
  9 13  1  0  0  0  0
  9 20  1  0  0  0  0
  9 43  1  0  0  0  0
 10 26  1  0  0  0  0
 10 51  1  0  0  0  0
 11 14  2  0  0  0  0
 11 16  1  0  0  0  0
 12 13  2  0  0  0  0
 12 21  1  0  0  0  0
 13 18  1  0  0  0  0
 14 20  1  0  0  0  0
 14 22  1  0  0  0  0
 15 16  2  0  0  0  0
 15 19  1  0  0  0  0
 15 23  1  0  0  0  0
 16 41  1  0  0  0  0
 17 18  2  0  0  0  0
 17 24  1  0  0  0  0
 17 25  1  0  0  0  0
 18 42  1  0  0  0  0
 19 26  1  0  0  0  0
 19 27  2  0  0  0  0
 21 25  2  0  0  0  0
 21 44  1  0  0  0  0
 22 23  2  0  0  0  0
 22 45  1  0  0  0  0
 23 46  1  0  0  0  0
 24 28  2  0  0  0  0
 24 29  1  0  0  0  0
 25 47  1  0  0  0  0
 26 30  2  0  0  0  0
 27 34  1  0  0  0  0
 27 48  1  0  0  0  0
 28 32  1  0  0  0  0
 28 49  1  0  0  0  0
 29 31  2  0  0  0  0
 29 50  1  0  0  0  0
 30 35  1  0  0  0  0
 30 52  1  0  0  0  0
 31 33  1  0  0  0  0
 32 33  2  0  0  0  0
 34 35  2  0  0  0  0
 34 53  1  0  0  0  0
 35 54  1  0  0  0  0
 36 55  1  0  0  0  0
 36 56  1  0  0  0  0
 36 57  1  0  0  0  0
 37 58  1  0  0  0  0
 37 59  1  0  0  0  0
 37 60  1  0  0  0  0
 38 61  1  0  0  0  0
 38 62  1  0  0  0  0
 38 63  1  0  0  0  0
 39 64  1  0  0  0  0
 39 65  1  0  0  0  0
 39 66  1  0  0  0  0
M  END
> <PUBCHEM_COMPOUND_CID>
49830576

> <PUBCHEM_COMPOUND_CANONICALIZED>
1

> <PUBCHEM_CACTVS_COMPLEXITY>
930

> <PUBCHEM_CACTVS_HBOND_ACCEPTOR>
8

> <PUBCHEM_CACTVS_HBOND_DONOR>
3

> <PUBCHEM_CACTVS_ROTATABLE_BOND>
7

> <PUBCHEM_CACTVS_SUBSKEYS>
AAADceB7OABAAAAAAAAAAAAAAAAAAAAAAAAwYMGABYAAAAABVAAAHgQQQAAADAyBmAKyxoLABAKIAiVSUHCCCAAlIgAIiAEG/MgNZ3rE9ZuUMapl1BXK6ceY6PyO6AABSAACQCDQAAKQAASAQAAAAAAAAA==

> <PUBCHEM_IUPAC_OPENEYE_NAME>
N-[2-[6-oxo-3-(3,4,5-trimethoxyphenyl)-5,11-dihydrobenzo[b][1,4]benzodiazepin-9-yl]phenyl]methanesulfonamide

> <PUBCHEM_IUPAC_CAS_NAME>
N-[2-[6-oxo-3-(3,4,5-trimethoxyphenyl)-5,11-dihydrobenzo[b][1,4]benzodiazepin-9-yl]phenyl]methanesulfonamide

> <PUBCHEM_IUPAC_NAME_MARKUP>
<I>N</I>-[2-[6-oxo-3-(3,4,5-trimethoxyphenyl)-5,11-dihydrobenzo[b][1,4]benzodiazepin-9-yl]phenyl]methanesulfonamide

> <PUBCHEM_IUPAC_NAME>
N-[2-[6-oxo-3-(3,4,5-trimethoxyphenyl)-5,11-dihydrobenzo[b][1,4]benzodiazepin-9-yl]phenyl]methanesulfonamide

> <PUBCHEM_IUPAC_SYSTEMATIC_NAME>
N-[2-[6-oxidanylidene-3-(3,4,5-trimethoxyphenyl)-5,11-dihydrobenzo[b][1,4]benzodiazepin-9-yl]phenyl]methanesulfonamide

> <PUBCHEM_IUPAC_TRADITIONAL_NAME>
N-[2-[6-keto-3-(3,4,5-trimethoxyphenyl)-5,11-dihydrobenzo[b][1,4]benzodiazepin-9-yl]phenyl]methanesulfonamide

> <PUBCHEM_IUPAC_INCHI>
InChI=1S/C29H27N3O6S/c1-36-26-15-19(16-27(37-2)28(26)38-3)17-10-12-23-25(13-17)31-29(33)21-11-9-18(14-24(21)30-23)20-7-5-6-8-22(20)32-39(4,34)35/h5-16,30,32H,1-4H3,(H,31,33)

> <PUBCHEM_IUPAC_INCHIKEY>
JYRQCAFYZKCCBK-UHFFFAOYSA-N

> <PUBCHEM_XLOGP3_AA>
4.5

> <PUBCHEM_EXACT_MASS>
545.16205676

> <PUBCHEM_MOLECULAR_FORMULA>
C29H27N3O6S

> <PUBCHEM_MOLECULAR_WEIGHT>
545.6

> <PUBCHEM_SMILES>
COC1=CC(=CC(=C1OC)OC)C2=CC3=C(C=C2)NC4=C(C=CC(=C4)C5=CC=CC=C5NS(=O)(=O)C)C(=O)N3

> <PUBCHEM_OPENEYE_CAN_SMILES>
COC1=CC(=CC(=C1OC)OC)C2=CC3=C(C=C2)NC4=C(C=CC(=C4)C5=CC=CC=C5NS(=O)(=O)C)C(=O)N3

> <PUBCHEM_OPENEYE_ISO_SMILES>
COC1=CC(=CC(=C1OC)OC)C2=CC3=C(C=C2)NC4=C(C=CC(=C4)C5=CC=CC=C5NS(=O)(=O)C)C(=O)N3

> <PUBCHEM_CACTVS_TPSA>
123

> <PUBCHEM_MONOISOTOPIC_WEIGHT>
545.16205676

> <PUBCHEM_TOTAL_CHARGE>
0

> <PUBCHEM_HEAVY_ATOM_COUNT>
39

> <PUBCHEM_ATOM_DEF_STEREO_COUNT>
0

> <PUBCHEM_ATOM_UDEF_STEREO_COUNT>
0

> <PUBCHEM_BOND_DEF_STEREO_COUNT>
0

> <PUBCHEM_BOND_UDEF_STEREO_COUNT>
0

> <PUBCHEM_ISOTOPIC_ATOM_COUNT>
0

> <PUBCHEM_COMPONENT_COUNT>
1

> <PUBCHEM_CACTVS_TAUTO_COUNT>
-1

> <PUBCHEM_COORDINATE_TYPE>
1
5
255

> <PUBCHEM_BONDANNOTATIONS>
11  14  8
11  16  8
12  13  8
12  21  8
13  18  8
14  22  8
15  16  8
15  23  8
17  18  8
17  25  8
19  26  8
19  27  8
21  25  8
22  23  8
24  28  8
24  29  8
26  30  8
27  34  8
28  32  8
29  31  8
30  35  8
31  33  8
32  33  8
34  35  8

$$$$
