9820195
  -OEChem-03202504042D

 43 45  0     1  0  0  0  0  0999 V2000
    2.5369   -1.1130    0.0000 O   0  0  0  0  0  0  0  0  0  0  0  0
    2.5369    3.8870    0.0000 N   0  0  0  0  0  0  0  0  0  0  0  0
    4.2690   -1.1130    0.0000 N   0  0  0  0  0  0  0  0  0  0  0  0
    6.0812   -3.9177    0.0000 N   0  0  0  0  0  0  0  0  0  0  0  0
    4.2690   -4.1130    0.0000 N   0  0  0  0  0  0  0  0  0  0  0  0
    3.4030    2.3870    0.0000 C   0  0  0  0  0  0  0  0  0  0  0  0
    4.2690    1.8870    0.0000 C   0  0  0  0  0  0  0  0  0  0  0  0
    2.5369    1.8870    0.0000 C   0  0  0  0  0  0  0  0  0  0  0  0
    3.4030    0.3870    0.0000 C   0  0  0  0  0  0  0  0  0  0  0  0
    4.2690    0.8870    0.0000 C   0  0  0  0  0  0  0  0  0  0  0  0
    2.5369    0.8870    0.0000 C   0  0  0  0  0  0  0  0  0  0  0  0
    3.4030    3.3870    0.0000 C   0  0  3  0  0  0  0  0  0  0  0  0
    3.4030   -0.6130    0.0000 C   0  0  0  0  0  0  0  0  0  0  0  0
    4.2690    3.8870    0.0000 C   0  0  0  0  0  0  0  0  0  0  0  0
    4.2690   -2.1130    0.0000 C   0  0  0  0  0  0  0  0  0  0  0  0
    5.1350   -2.6130    0.0000 C   0  0  0  0  0  0  0  0  0  0  0  0
    3.4030   -2.6130    0.0000 C   0  0  0  0  0  0  0  0  0  0  0  0
    5.1350   -3.6130    0.0000 C   0  0  0  0  0  0  0  0  0  0  0  0
    6.0812   -2.3082    0.0000 C   0  0  0  0  0  0  0  0  0  0  0  0
    3.4030   -3.6130    0.0000 C   0  0  0  0  0  0  0  0  0  0  0  0
    6.6648   -3.1130    0.0000 C   0  0  0  0  0  0  0  0  0  0  0  0
    3.9399    2.6970    0.0000 H   0  0  0  0  0  0  0  0  0  0  0  0
    4.8796    1.7794    0.0000 H   0  0  0  0  0  0  0  0  0  0  0  0
    4.4810    2.4696    0.0000 H   0  0  0  0  0  0  0  0  0  0  0  0
    2.3249    2.4696    0.0000 H   0  0  0  0  0  0  0  0  0  0  0  0
    1.9264    1.7794    0.0000 H   0  0  0  0  0  0  0  0  0  0  0  0
    3.9399    0.0770    0.0000 H   0  0  0  0  0  0  0  0  0  0  0  0
    4.4810    0.3044    0.0000 H   0  0  0  0  0  0  0  0  0  0  0  0
    4.8796    0.9947    0.0000 H   0  0  0  0  0  0  0  0  0  0  0  0
    1.9264    0.9947    0.0000 H   0  0  0  0  0  0  0  0  0  0  0  0
    2.3249    0.3044    0.0000 H   0  0  0  0  0  0  0  0  0  0  0  0
    3.4030    4.0070    0.0000 H   0  0  0  0  0  0  0  0  0  0  0  0
    4.5790    3.3501    0.0000 H   0  0  0  0  0  0  0  0  0  0  0  0
    4.8059    4.1970    0.0000 H   0  0  0  0  0  0  0  0  0  0  0  0
    3.9590    4.4240    0.0000 H   0  0  0  0  0  0  0  0  0  0  0  0
    2.5369    4.5070    0.0000 H   0  0  0  0  0  0  0  0  0  0  0  0
    2.0000    3.5770    0.0000 H   0  0  0  0  0  0  0  0  0  0  0  0
    4.8059   -0.8030    0.0000 H   0  0  0  0  0  0  0  0  0  0  0  0
    2.8660   -2.3030    0.0000 H   0  0  0  0  0  0  0  0  0  0  0  0
    6.2738   -1.7189    0.0000 H   0  0  0  0  0  0  0  0  0  0  0  0
    2.8660   -3.9230    0.0000 H   0  0  0  0  0  0  0  0  0  0  0  0
    6.2738   -4.5070    0.0000 H   0  0  0  0  0  0  0  0  0  0  0  0
    7.2848   -3.1130    0.0000 H   0  0  0  0  0  0  0  0  0  0  0  0
  1 13  2  0  0  0  0
  2 12  1  0  0  0  0
  2 36  1  0  0  0  0
  2 37  1  0  0  0  0
  3 13  1  0  0  0  0
  3 15  1  0  0  0  0
  3 38  1  0  0  0  0
  4 18  1  0  0  0  0
  4 21  1  0  0  0  0
  4 42  1  0  0  0  0
  5 18  2  0  0  0  0
  5 20  1  0  0  0  0
  6  7  1  0  0  0  0
  6  8  1  0  0  0  0
  6 12  1  0  0  0  0
  6 22  1  0  0  0  0
  7 10  1  0  0  0  0
  7 23  1  0  0  0  0
  7 24  1  0  0  0  0
  8 11  1  0  0  0  0
  8 25  1  0  0  0  0
  8 26  1  0  0  0  0
  9 10  1  0  0  0  0
  9 11  1  0  0  0  0
  9 13  1  0  0  0  0
  9 27  1  0  0  0  0
 10 28  1  0  0  0  0
 10 29  1  0  0  0  0
 11 30  1  0  0  0  0
 11 31  1  0  0  0  0
 12 14  1  0  0  0  0
 12 32  1  0  0  0  0
 14 33  1  0  0  0  0
 14 34  1  0  0  0  0
 14 35  1  0  0  0  0
 15 16  2  0  0  0  0
 15 17  1  0  0  0  0
 16 18  1  0  0  0  0
 16 19  1  0  0  0  0
 17 20  2  0  0  0  0
 17 39  1  0  0  0  0
 19 21  2  0  0  0  0
 19 40  1  0  0  0  0
 20 41  1  0  0  0  0
 21 43  1  0  0  0  0
M  END
> <PUBCHEM_COMPOUND_CID>
9820195

> <PUBCHEM_COMPOUND_CANONICALIZED>
1

> <PUBCHEM_CACTVS_COMPLEXITY>
367

> <PUBCHEM_CACTVS_HBOND_ACCEPTOR>
3

> <PUBCHEM_CACTVS_HBOND_DONOR>
3

> <PUBCHEM_CACTVS_ROTATABLE_BOND>
3

> <PUBCHEM_CACTVS_SUBSKEYS>
AAADceB7oAAAAAAAAAAAAAAAAAAAAWAAAAA8QAAAAAAAAFgB+AAAHgAQAAAADSjBmwQ/8N7JkACoAjd3dACCgCmxAqAJ2aE4ZJiIKPLA2NGEJAholALIyCcYiMCOAAAAAAAAAACAAAAAAAAAAAAAAAAAAA==

> <PUBCHEM_IUPAC_OPENEYE_NAME>
4-(1-aminoethyl)-N-(1H-pyrrolo[2,3-b]pyridin-4-yl)cyclohexanecarboxamide

> <PUBCHEM_IUPAC_CAS_NAME>
4-(1-aminoethyl)-N-(1H-pyrrolo[2,3-b]pyridin-4-yl)-1-cyclohexanecarboxamide

> <PUBCHEM_IUPAC_NAME_MARKUP>
4-(1-aminoethyl)-<I>N</I>-(1<I>H</I>-pyrrolo[2,3-b]pyridin-4-yl)cyclohexane-1-carboxamide

> <PUBCHEM_IUPAC_NAME>
4-(1-aminoethyl)-N-(1H-pyrrolo[2,3-b]pyridin-4-yl)cyclohexane-1-carboxamide

> <PUBCHEM_IUPAC_SYSTEMATIC_NAME>
4-(1-azanylethyl)-N-(1H-pyrrolo[2,3-b]pyridin-4-yl)cyclohexane-1-carboxamide

> <PUBCHEM_IUPAC_TRADITIONAL_NAME>
4-(1-aminoethyl)-N-(1H-pyrrolo[2,3-b]pyridin-4-yl)cyclohexanecarboxamide

> <PUBCHEM_IUPAC_INCHI>
InChI=1S/C16H22N4O/c1-10(17)11-2-4-12(5-3-11)16(21)20-14-7-9-19-15-13(14)6-8-18-15/h6-12H,2-5,17H2,1H3,(H2,18,19,20,21)

> <PUBCHEM_IUPAC_INCHIKEY>
DWTNLZZEPSCAIH-UHFFFAOYSA-N

> <PUBCHEM_XLOGP3_AA>
1.4

> <PUBCHEM_EXACT_MASS>
286.17936134

> <PUBCHEM_MOLECULAR_FORMULA>
C16H22N4O

> <PUBCHEM_MOLECULAR_WEIGHT>
286.37

> <PUBCHEM_SMILES>
CC(C1CCC(CC1)C(=O)NC2=C3C=CNC3=NC=C2)N

> <PUBCHEM_OPENEYE_CAN_SMILES>
CC(C1CCC(CC1)C(=O)NC2=C3C=CNC3=NC=C2)N

> <PUBCHEM_OPENEYE_ISO_SMILES>
CC(C1CCC(CC1)C(=O)NC2=C3C=CNC3=NC=C2)N

> <PUBCHEM_CACTVS_TPSA>
83.8

> <PUBCHEM_MONOISOTOPIC_WEIGHT>
286.17936134

> <PUBCHEM_TOTAL_CHARGE>
0

> <PUBCHEM_HEAVY_ATOM_COUNT>
21

> <PUBCHEM_ATOM_DEF_STEREO_COUNT>
0

> <PUBCHEM_ATOM_UDEF_STEREO_COUNT>
1

> <PUBCHEM_BOND_DEF_STEREO_COUNT>
0

> <PUBCHEM_BOND_UDEF_STEREO_COUNT>
0

> <PUBCHEM_ISOTOPIC_ATOM_COUNT>
0

> <PUBCHEM_COMPONENT_COUNT>
1

> <PUBCHEM_CACTVS_TAUTO_COUNT>
-1

> <PUBCHEM_COORDINATE_TYPE>
1
5
255

> <PUBCHEM_BONDANNOTATIONS>
15  16  8
15  17  8
16  18  8
16  19  8
17  20  8
19  21  8
12  2  3
4  18  8
4  21  8
5  18  8
5  20  8

$$$$
