24905178
  -OEChem-03202500022D

 42 44  0     0  0  0  0  0  0999 V2000
    6.6353    0.4326    0.0000 O   0  0  0  0  0  0  0  0  0  0  0  0
    7.2566    2.3336    0.0000 O   0  0  0  0  0  0  0  0  0  0  0  0
    4.6783   -1.5893    0.0000 N   0  0  0  0  0  0  0  0  0  0  0  0
    5.2619   -0.7846    0.0000 N   0  0  0  0  0  0  0  0  0  0  0  0
    2.8660   -1.7846    0.0000 N   0  0  0  0  0  0  0  0  0  0  0  0
    2.0000   -0.2846    0.0000 N   0  0  0  0  0  0  0  0  0  0  0  0
    2.8660    1.2154    0.0000 N   0  0  0  0  0  0  0  0  0  0  0  0
    4.9889   -2.5398    0.0000 C   0  0  0  0  0  0  0  0  0  0  0  0
    3.7320   -1.2846    0.0000 C   0  0  0  0  0  0  0  0  0  0  0  0
    3.7320   -0.2846    0.0000 C   0  0  0  0  0  0  0  0  0  0  0  0
    4.6783    0.0201    0.0000 C   0  0  0  0  0  0  0  0  0  0  0  0
    4.9889    0.9707    0.0000 C   0  0  0  0  0  0  0  0  0  0  0  0
    5.9674   -2.7461    0.0000 C   0  0  0  0  0  0  0  0  0  0  0  0
    4.3211   -3.2841    0.0000 C   0  0  0  0  0  0  0  0  0  0  0  0
    2.8660    0.2154    0.0000 C   0  0  0  0  0  0  0  0  0  0  0  0
    5.9674    1.1769    0.0000 C   0  0  0  0  0  0  0  0  0  0  0  0
    4.3211    1.7150    0.0000 C   0  0  0  0  0  0  0  0  0  0  0  0
    6.2781    2.1274    0.0000 C   0  0  0  0  0  0  0  0  0  0  0  0
    2.0000   -1.2846    0.0000 C   0  0  0  0  0  0  0  0  0  0  0  0
    4.6318    2.6655    0.0000 C   0  0  0  0  0  0  0  0  0  0  0  0
    5.6103    2.8717    0.0000 C   0  0  0  0  0  0  0  0  0  0  0  0
    7.6138    0.6388    0.0000 C   0  0  0  0  0  0  0  0  0  0  0  0
    7.5673    3.2841    0.0000 C   0  0  0  0  0  0  0  0  0  0  0  0
    5.1815   -3.1292    0.0000 H   0  0  0  0  0  0  0  0  0  0  0  0
    5.8396   -3.3527    0.0000 H   0  0  0  0  0  0  0  0  0  0  0  0
    6.5741   -2.8739    0.0000 H   0  0  0  0  0  0  0  0  0  0  0  0
    6.0953   -2.1394    0.0000 H   0  0  0  0  0  0  0  0  0  0  0  0
    3.8596   -2.8701    0.0000 H   0  0  0  0  0  0  0  0  0  0  0  0
    3.9070   -3.7456    0.0000 H   0  0  0  0  0  0  0  0  0  0  0  0
    4.7826   -3.6982    0.0000 H   0  0  0  0  0  0  0  0  0  0  0  0
    3.7144    1.5871    0.0000 H   0  0  0  0  0  0  0  0  0  0  0  0
    1.4631   -1.5946    0.0000 H   0  0  0  0  0  0  0  0  0  0  0  0
    4.2177    3.1270    0.0000 H   0  0  0  0  0  0  0  0  0  0  0  0
    5.8029    3.4610    0.0000 H   0  0  0  0  0  0  0  0  0  0  0  0
    2.3291    1.5254    0.0000 H   0  0  0  0  0  0  0  0  0  0  0  0
    3.4030    1.5254    0.0000 H   0  0  0  0  0  0  0  0  0  0  0  0
    7.7416    0.0321    0.0000 H   0  0  0  0  0  0  0  0  0  0  0  0
    8.2205    0.7667    0.0000 H   0  0  0  0  0  0  0  0  0  0  0  0
    7.4859    1.2455    0.0000 H   0  0  0  0  0  0  0  0  0  0  0  0
    8.1566    3.0915    0.0000 H   0  0  0  0  0  0  0  0  0  0  0  0
    7.7599    3.8735    0.0000 H   0  0  0  0  0  0  0  0  0  0  0  0
    6.9780    3.4768    0.0000 H   0  0  0  0  0  0  0  0  0  0  0  0
  1 16  1  0  0  0  0
  1 22  1  0  0  0  0
  2 18  1  0  0  0  0
  2 23  1  0  0  0  0
  3  4  1  0  0  0  0
  3  8  1  0  0  0  0
  3  9  1  0  0  0  0
  4 11  2  0  0  0  0
  5  9  2  0  0  0  0
  5 19  1  0  0  0  0
  6 15  1  0  0  0  0
  6 19  2  0  0  0  0
  7 15  1  0  0  0  0
  7 35  1  0  0  0  0
  7 36  1  0  0  0  0
  8 13  1  0  0  0  0
  8 14  1  0  0  0  0
  8 24  1  0  0  0  0
  9 10  1  0  0  0  0
 10 11  1  0  0  0  0
 10 15  2  0  0  0  0
 11 12  1  0  0  0  0
 12 16  2  0  0  0  0
 12 17  1  0  0  0  0
 13 25  1  0  0  0  0
 13 26  1  0  0  0  0
 13 27  1  0  0  0  0
 14 28  1  0  0  0  0
 14 29  1  0  0  0  0
 14 30  1  0  0  0  0
 16 18  1  0  0  0  0
 17 20  2  0  0  0  0
 17 31  1  0  0  0  0
 18 21  2  0  0  0  0
 19 32  1  0  0  0  0
 20 21  1  0  0  0  0
 20 33  1  0  0  0  0
 21 34  1  0  0  0  0
 22 37  1  0  0  0  0
 22 38  1  0  0  0  0
 22 39  1  0  0  0  0
 23 40  1  0  0  0  0
 23 41  1  0  0  0  0
 23 42  1  0  0  0  0
M  END
> <PUBCHEM_COMPOUND_CID>
24905178

> <PUBCHEM_COMPOUND_CANONICALIZED>
1

> <PUBCHEM_CACTVS_COMPLEXITY>
397

> <PUBCHEM_CACTVS_HBOND_ACCEPTOR>
6

> <PUBCHEM_CACTVS_HBOND_DONOR>
1

> <PUBCHEM_CACTVS_ROTATABLE_BOND>
4

> <PUBCHEM_CACTVS_SUBSKEYS>
AAADceB7sAAAAAAAAAAAAAAAAAAAAWAAAAA8QAAAAAAAAFgB/AAAHgAYAAAADCzBnwY3tt5IFACiAyZjZACSjCsxoKAd2CAuzJiNLqLE+duEtCpuyBPK6Cew0PIOAAABAAAIQAAAAAIAABCAAAAAAAAAAA==

> <PUBCHEM_IUPAC_OPENEYE_NAME>
3-(2,3-dimethoxyphenyl)-1-isopropyl-pyrazolo[3,4-d]pyrimidin-4-amine

> <PUBCHEM_IUPAC_CAS_NAME>
3-(2,3-dimethoxyphenyl)-1-propan-2-yl-4-pyrazolo[3,4-d]pyrimidinamine

> <PUBCHEM_IUPAC_NAME_MARKUP>
3-(2,3-dimethoxyphenyl)-1-propan-2-ylpyrazolo[3,4-d]pyrimidin-4-amine

> <PUBCHEM_IUPAC_NAME>
3-(2,3-dimethoxyphenyl)-1-propan-2-ylpyrazolo[3,4-d]pyrimidin-4-amine

> <PUBCHEM_IUPAC_SYSTEMATIC_NAME>
3-(2,3-dimethoxyphenyl)-1-propan-2-yl-pyrazolo[3,4-d]pyrimidin-4-amine

> <PUBCHEM_IUPAC_TRADITIONAL_NAME>
[3-(2,3-dimethoxyphenyl)-1-isopropyl-pyrazolo[3,4-d]pyrimidin-4-yl]amine

> <PUBCHEM_IUPAC_INCHI>
InChI=1S/C16H19N5O2/c1-9(2)21-16-12(15(17)18-8-19-16)13(20-21)10-6-5-7-11(22-3)14(10)23-4/h5-9H,1-4H3,(H2,17,18,19)

> <PUBCHEM_IUPAC_INCHIKEY>
ZXLCCABWVQDAOS-UHFFFAOYSA-N

> <PUBCHEM_XLOGP3_AA>
2.1

> <PUBCHEM_EXACT_MASS>
313.15387487

> <PUBCHEM_MOLECULAR_FORMULA>
C16H19N5O2

> <PUBCHEM_MOLECULAR_WEIGHT>
313.35

> <PUBCHEM_SMILES>
CC(C)N1C2=NC=NC(=C2C(=N1)C3=C(C(=CC=C3)OC)OC)N

> <PUBCHEM_OPENEYE_CAN_SMILES>
CC(C)N1C2=NC=NC(=C2C(=N1)C3=C(C(=CC=C3)OC)OC)N

> <PUBCHEM_OPENEYE_ISO_SMILES>
CC(C)N1C2=NC=NC(=C2C(=N1)C3=C(C(=CC=C3)OC)OC)N

> <PUBCHEM_CACTVS_TPSA>
88.1

> <PUBCHEM_MONOISOTOPIC_WEIGHT>
313.15387487

> <PUBCHEM_TOTAL_CHARGE>
0

> <PUBCHEM_HEAVY_ATOM_COUNT>
23

> <PUBCHEM_ATOM_DEF_STEREO_COUNT>
0

> <PUBCHEM_ATOM_UDEF_STEREO_COUNT>
0

> <PUBCHEM_BOND_DEF_STEREO_COUNT>
0

> <PUBCHEM_BOND_UDEF_STEREO_COUNT>
0

> <PUBCHEM_ISOTOPIC_ATOM_COUNT>
0

> <PUBCHEM_COMPONENT_COUNT>
1

> <PUBCHEM_CACTVS_TAUTO_COUNT>
-1

> <PUBCHEM_COORDINATE_TYPE>
1
5
255

> <PUBCHEM_BONDANNOTATIONS>
10  11  8
10  15  8
12  16  8
12  17  8
16  18  8
17  20  8
18  21  8
20  21  8
3  4  8
3  9  8
4  11  8
5  19  8
5  9  8
6  15  8
6  19  8
9  10  8

$$$$
