4369491
  -OEChem-03202504462D

 37 41  0     0  0  0  0  0  0999 V2000
    2.8930   -1.1934    0.0000 O   0  0  0  0  0  0  0  0  0  0  0  0
    2.8930    2.3172    0.0000 O   0  0  0  0  0  0  0  0  0  0  0  0
    4.4288   -3.9947    0.0000 O   0  0  0  0  0  0  0  0  0  0  0  0
    6.6189   -0.6052    0.0000 N   0  0  0  0  0  0  0  0  0  0  0  0
    2.6200    0.5619    0.0000 N   0  0  0  0  0  0  0  0  0  0  0  0
    5.0158   -0.4381    0.0000 C   0  0  0  0  0  0  0  0  0  0  0  0
    4.1498    0.0619    0.0000 C   0  0  0  0  0  0  0  0  0  0  0  0
    5.8819    0.0619    0.0000 C   0  0  0  0  0  0  0  0  0  0  0  0
    5.2251   -1.4099    0.0000 C   0  0  0  0  0  0  0  0  0  0  0  0
    4.1498    1.0619    0.0000 C   0  0  0  0  0  0  0  0  0  0  0  0
    5.0158    1.5619    0.0000 C   0  0  0  0  0  0  0  0  0  0  0  0
    6.2138   -1.5130    0.0000 C   0  0  0  0  0  0  0  0  0  0  0  0
    5.8819    1.0619    0.0000 C   0  0  0  0  0  0  0  0  0  0  0  0
    3.2036   -0.2428    0.0000 C   0  0  0  0  0  0  0  0  0  0  0  0
    3.2036    1.3666    0.0000 C   0  0  0  0  0  0  0  0  0  0  0  0
    4.6043   -2.2387    0.0000 C   0  0  0  0  0  0  0  0  0  0  0  0
    5.0158    2.5619    0.0000 C   0  0  0  0  0  0  0  0  0  0  0  0
    6.6503   -2.4519    0.0000 C   0  0  0  0  0  0  0  0  0  0  0  0
    5.0190   -3.1875    0.0000 C   0  0  0  0  0  0  0  0  0  0  0  0
    6.0489   -3.2948    0.0000 C   0  0  0  0  0  0  0  0  0  0  0  0
    4.1498    3.0619    0.0000 C   0  0  0  0  0  0  0  0  0  0  0  0
    5.8819    3.0619    0.0000 C   0  0  0  0  0  0  0  0  0  0  0  0
    4.1498    4.0619    0.0000 C   0  0  0  0  0  0  0  0  0  0  0  0
    5.8819    4.0619    0.0000 C   0  0  0  0  0  0  0  0  0  0  0  0
    5.0158    4.5619    0.0000 C   0  0  0  0  0  0  0  0  0  0  0  0
    6.4188    1.3719    0.0000 H   0  0  0  0  0  0  0  0  0  0  0  0
    7.2256   -0.4773    0.0000 H   0  0  0  0  0  0  0  0  0  0  0  0
    3.9884   -2.1673    0.0000 H   0  0  0  0  0  0  0  0  0  0  0  0
    2.0000    0.5619    0.0000 H   0  0  0  0  0  0  0  0  0  0  0  0
    7.2676   -2.5091    0.0000 H   0  0  0  0  0  0  0  0  0  0  0  0
    6.3037   -3.8600    0.0000 H   0  0  0  0  0  0  0  0  0  0  0  0
    3.6129    2.7519    0.0000 H   0  0  0  0  0  0  0  0  0  0  0  0
    6.4188    2.7519    0.0000 H   0  0  0  0  0  0  0  0  0  0  0  0
    3.6129    4.3719    0.0000 H   0  0  0  0  0  0  0  0  0  0  0  0
    6.4188    4.3719    0.0000 H   0  0  0  0  0  0  0  0  0  0  0  0
    5.0158    5.1819    0.0000 H   0  0  0  0  0  0  0  0  0  0  0  0
    4.6793   -4.5619    0.0000 H   0  0  0  0  0  0  0  0  0  0  0  0
  1 14  2  0  0  0  0
  2 15  2  0  0  0  0
  3 19  1  0  0  0  0
  3 37  1  0  0  0  0
  4  8  1  0  0  0  0
  4 12  1  0  0  0  0
  4 27  1  0  0  0  0
  5 14  1  0  0  0  0
  5 15  1  0  0  0  0
  5 29  1  0  0  0  0
  6  7  1  0  0  0  0
  6  8  2  0  0  0  0
  6  9  1  0  0  0  0
  7 10  2  0  0  0  0
  7 14  1  0  0  0  0
  8 13  1  0  0  0  0
  9 12  2  0  0  0  0
  9 16  1  0  0  0  0
 10 11  1  0  0  0  0
 10 15  1  0  0  0  0
 11 13  2  0  0  0  0
 11 17  1  0  0  0  0
 12 18  1  0  0  0  0
 13 26  1  0  0  0  0
 16 19  2  0  0  0  0
 16 28  1  0  0  0  0
 17 21  2  0  0  0  0
 17 22  1  0  0  0  0
 18 20  2  0  0  0  0
 18 30  1  0  0  0  0
 19 20  1  0  0  0  0
 20 31  1  0  0  0  0
 21 23  1  0  0  0  0
 21 32  1  0  0  0  0
 22 24  2  0  0  0  0
 22 33  1  0  0  0  0
 23 25  2  0  0  0  0
 23 34  1  0  0  0  0
 24 25  1  0  0  0  0
 24 35  1  0  0  0  0
 25 36  1  0  0  0  0
M  END
> <PUBCHEM_COMPOUND_CID>
4369491

> <PUBCHEM_COMPOUND_CANONICALIZED>
1

> <PUBCHEM_CACTVS_COMPLEXITY>
573

> <PUBCHEM_CACTVS_HBOND_ACCEPTOR>
3

> <PUBCHEM_CACTVS_HBOND_DONOR>
3

> <PUBCHEM_CACTVS_ROTATABLE_BOND>
1

> <PUBCHEM_CACTVS_SUBSKEYS>
AAADccB7MAAAAAAAAAAAAAAAAAAAAWLAAAAwYMAAAAAAAFgB/AAAHgAQCAAADAyBngAwxvLJkgCoAyVyVACCgCAlIiAImSE2bNgIJvLClZOEcQhk1DHI2Qe92fOeyEADQAASAACQgAaAACQAAAAAAAAAAA==

> <PUBCHEM_IUPAC_OPENEYE_NAME>
9-hydroxy-4-phenyl-6H-pyrrolo[3,4-c]carbazole-1,3-dione

> <PUBCHEM_IUPAC_CAS_NAME>
9-hydroxy-4-phenyl-6H-pyrrolo[3,4-c]carbazole-1,3-dione

> <PUBCHEM_IUPAC_NAME_MARKUP>
9-hydroxy-4-phenyl-6<I>H</I>-pyrrolo[3,4-c]carbazole-1,3-dione

> <PUBCHEM_IUPAC_NAME>
9-hydroxy-4-phenyl-6H-pyrrolo[3,4-c]carbazole-1,3-dione

> <PUBCHEM_IUPAC_SYSTEMATIC_NAME>
9-oxidanyl-4-phenyl-6H-pyrrolo[3,4-c]carbazole-1,3-dione

> <PUBCHEM_IUPAC_TRADITIONAL_NAME>
9-hydroxy-4-phenyl-6H-pyrrolo[3,4-c]carbazole-1,3-quinone

> <PUBCHEM_IUPAC_INCHI>
InChI=1S/C20H12N2O3/c23-11-6-7-14-13(8-11)16-15(21-14)9-12(10-4-2-1-3-5-10)17-18(16)20(25)22-19(17)24/h1-9,21,23H,(H,22,24,25)

> <PUBCHEM_IUPAC_INCHIKEY>
IAUZTOZLTFSMIE-UHFFFAOYSA-N

> <PUBCHEM_XLOGP3_AA>
3.5

> <PUBCHEM_EXACT_MASS>
328.08479225

> <PUBCHEM_MOLECULAR_FORMULA>
C20H12N2O3

> <PUBCHEM_MOLECULAR_WEIGHT>
328.3

> <PUBCHEM_SMILES>
C1=CC=C(C=C1)C2=CC3=C(C4=C(N3)C=CC(=C4)O)C5=C2C(=O)NC5=O

> <PUBCHEM_OPENEYE_CAN_SMILES>
C1=CC=C(C=C1)C2=CC3=C(C4=C(N3)C=CC(=C4)O)C5=C2C(=O)NC5=O

> <PUBCHEM_OPENEYE_ISO_SMILES>
C1=CC=C(C=C1)C2=CC3=C(C4=C(N3)C=CC(=C4)O)C5=C2C(=O)NC5=O

> <PUBCHEM_CACTVS_TPSA>
82.2

> <PUBCHEM_MONOISOTOPIC_WEIGHT>
328.08479225

> <PUBCHEM_TOTAL_CHARGE>
0

> <PUBCHEM_HEAVY_ATOM_COUNT>
25

> <PUBCHEM_ATOM_DEF_STEREO_COUNT>
0

> <PUBCHEM_ATOM_UDEF_STEREO_COUNT>
0

> <PUBCHEM_BOND_DEF_STEREO_COUNT>
0

> <PUBCHEM_BOND_UDEF_STEREO_COUNT>
0

> <PUBCHEM_ISOTOPIC_ATOM_COUNT>
0

> <PUBCHEM_COMPONENT_COUNT>
1

> <PUBCHEM_CACTVS_TAUTO_COUNT>
-1

> <PUBCHEM_COORDINATE_TYPE>
1
5
255

> <PUBCHEM_BONDANNOTATIONS>
10  11  8
11  13  8
12  18  8
16  19  8
17  21  8
17  22  8
18  20  8
19  20  8
21  23  8
22  24  8
23  25  8
24  25  8
4  12  8
4  8  8
6  7  8
6  8  8
6  9  8
7  10  8
8  13  8
9  12  8
9  16  8

$$$$
