49830641
  -OEChem-03202503252D

 34 37  0     0  0  0  0  0  0999 V2000
    6.1346    0.4502    0.0000 S   0  0  0  0  0  0  0  0  0  0  0  0
    6.4103   -1.3103    0.0000 N   0  0  0  0  0  0  0  0  0  0  0  0
    6.4103   -2.9198    0.0000 N   0  0  0  0  0  0  0  0  0  0  0  0
    7.6726   -0.0524    0.0000 N   0  0  0  0  0  0  0  0  0  0  0  0
    7.9939   -2.1150    0.0000 N   0  0  0  0  0  0  0  0  0  0  0  0
    2.0000   -0.6150    0.0000 N   0  0  0  0  0  0  0  0  0  0  0  0
    5.4641   -1.6151    0.0000 C   0  0  0  0  0  0  0  0  0  0  0  0
    5.4641   -2.6150    0.0000 C   0  0  0  0  0  0  0  0  0  0  0  0
    6.9939   -2.1150    0.0000 C   0  0  0  0  0  0  0  0  0  0  0  0
    6.7210   -0.3598    0.0000 C   0  0  0  0  0  0  0  0  0  0  0  0
    4.5981   -1.1151    0.0000 C   0  0  0  0  0  0  0  0  0  0  0  0
    4.5981   -3.1150    0.0000 C   0  0  0  0  0  0  0  0  0  0  0  0
    7.6743    0.9476    0.0000 C   0  0  0  0  0  0  0  0  0  0  0  0
    3.7320   -1.6151    0.0000 C   0  0  0  0  0  0  0  0  0  0  0  0
    3.7320   -2.6150    0.0000 C   0  0  0  0  0  0  0  0  0  0  0  0
    8.4843    1.5340    0.0000 C   0  0  0  0  0  0  0  0  0  0  0  0
    6.7238    1.2582    0.0000 C   0  0  0  0  0  0  0  0  0  0  0  0
    9.3972    1.1256    0.0000 C   0  0  0  0  0  0  0  0  0  0  0  0
    8.3815    2.5287    0.0000 C   0  0  0  0  0  0  0  0  0  0  0  0
   10.2072    1.7120    0.0000 C   0  0  0  0  0  0  0  0  0  0  0  0
    9.1916    3.1150    0.0000 C   0  0  0  0  0  0  0  0  0  0  0  0
   10.1044    2.7067    0.0000 C   0  0  0  0  0  0  0  0  0  0  0  0
    2.8660   -1.1151    0.0000 C   0  0  0  0  0  0  0  0  0  0  0  0
    4.5981   -0.4950    0.0000 H   0  0  0  0  0  0  0  0  0  0  0  0
    4.5981   -3.7350    0.0000 H   0  0  0  0  0  0  0  0  0  0  0  0
    3.1951   -2.9250    0.0000 H   0  0  0  0  0  0  0  0  0  0  0  0
    6.5332    1.8482    0.0000 H   0  0  0  0  0  0  0  0  0  0  0  0
    8.3039   -2.6520    0.0000 H   0  0  0  0  0  0  0  0  0  0  0  0
    8.3039   -1.5781    0.0000 H   0  0  0  0  0  0  0  0  0  0  0  0
    9.4609    0.5089    0.0000 H   0  0  0  0  0  0  0  0  0  0  0  0
    7.8156    2.7818    0.0000 H   0  0  0  0  0  0  0  0  0  0  0  0
   10.7732    1.4589    0.0000 H   0  0  0  0  0  0  0  0  0  0  0  0
    9.1278    3.7318    0.0000 H   0  0  0  0  0  0  0  0  0  0  0  0
   10.6066    3.0703    0.0000 H   0  0  0  0  0  0  0  0  0  0  0  0
  1 10  1  0  0  0  0
  1 17  1  0  0  0  0
  2  7  1  0  0  0  0
  2  9  1  0  0  0  0
  2 10  1  0  0  0  0
  3  8  1  0  0  0  0
  3  9  2  0  0  0  0
  4 10  2  0  0  0  0
  4 13  1  0  0  0  0
  5  9  1  0  0  0  0
  5 28  1  0  0  0  0
  5 29  1  0  0  0  0
  6 23  3  0  0  0  0
  7  8  2  0  0  0  0
  7 11  1  0  0  0  0
  8 12  1  0  0  0  0
 11 14  2  0  0  0  0
 11 24  1  0  0  0  0
 12 15  2  0  0  0  0
 12 25  1  0  0  0  0
 13 16  1  0  0  0  0
 13 17  2  0  0  0  0
 14 15  1  0  0  0  0
 14 23  1  0  0  0  0
 15 26  1  0  0  0  0
 16 18  2  0  0  0  0
 16 19  1  0  0  0  0
 17 27  1  0  0  0  0
 18 20  1  0  0  0  0
 18 30  1  0  0  0  0
 19 21  2  0  0  0  0
 19 31  1  0  0  0  0
 20 22  2  0  0  0  0
 20 32  1  0  0  0  0
 21 22  1  0  0  0  0
 21 33  1  0  0  0  0
 22 34  1  0  0  0  0
M  END
> <PUBCHEM_COMPOUND_CID>
49830641

> <PUBCHEM_COMPOUND_CANONICALIZED>
1

> <PUBCHEM_CACTVS_COMPLEXITY>
471

> <PUBCHEM_CACTVS_HBOND_ACCEPTOR>
5

> <PUBCHEM_CACTVS_HBOND_DONOR>
1

> <PUBCHEM_CACTVS_ROTATABLE_BOND>
2

> <PUBCHEM_CACTVS_SUBSKEYS>
AAADccB7gABAAAAAAAAAAAAAAAAAAWLAAAAwYAAAAAAAAFgB/AAAHAQQAAAADAiFXgCx0bdMEAi0ByRiZACi8K1hGrgJmDQwdJiI6KLgmZGUIAhogAJIyC8QgIAOCAAAQAAAACAQAACAAAAAQAAAAAAAAA==

> <PUBCHEM_IUPAC_OPENEYE_NAME>
2-amino-3-(4-phenylthiazol-2-yl)benzimidazole-5-carbonitrile

> <PUBCHEM_IUPAC_CAS_NAME>
2-amino-3-(4-phenyl-2-thiazolyl)-5-benzimidazolecarbonitrile

> <PUBCHEM_IUPAC_NAME_MARKUP>
2-amino-3-(4-phenyl-1,3-thiazol-2-yl)benzimidazole-5-carbonitrile

> <PUBCHEM_IUPAC_NAME>
2-amino-3-(4-phenyl-1,3-thiazol-2-yl)benzimidazole-5-carbonitrile

> <PUBCHEM_IUPAC_SYSTEMATIC_NAME>
2-azanyl-3-(4-phenyl-1,3-thiazol-2-yl)benzimidazole-5-carbonitrile

> <PUBCHEM_IUPAC_TRADITIONAL_NAME>
2-amino-3-(4-phenylthiazol-2-yl)benzimidazole-5-carbonitrile

> <PUBCHEM_IUPAC_INCHI>
InChI=1S/C17H11N5S/c18-9-11-6-7-13-15(8-11)22(16(19)20-13)17-21-14(10-23-17)12-4-2-1-3-5-12/h1-8,10H,(H2,19,20)

> <PUBCHEM_IUPAC_INCHIKEY>
KOHNRDPXFDZZJF-UHFFFAOYSA-N

> <PUBCHEM_XLOGP3_AA>
3.5

> <PUBCHEM_EXACT_MASS>
317.07351655

> <PUBCHEM_MOLECULAR_FORMULA>
C17H11N5S

> <PUBCHEM_MOLECULAR_WEIGHT>
317.4

> <PUBCHEM_SMILES>
C1=CC=C(C=C1)C2=CSC(=N2)N3C4=C(C=CC(=C4)C#N)N=C3N

> <PUBCHEM_OPENEYE_CAN_SMILES>
C1=CC=C(C=C1)C2=CSC(=N2)N3C4=C(C=CC(=C4)C#N)N=C3N

> <PUBCHEM_OPENEYE_ISO_SMILES>
C1=CC=C(C=C1)C2=CSC(=N2)N3C4=C(C=CC(=C4)C#N)N=C3N

> <PUBCHEM_CACTVS_TPSA>
109

> <PUBCHEM_MONOISOTOPIC_WEIGHT>
317.07351655

> <PUBCHEM_TOTAL_CHARGE>
0

> <PUBCHEM_HEAVY_ATOM_COUNT>
23

> <PUBCHEM_ATOM_DEF_STEREO_COUNT>
0

> <PUBCHEM_ATOM_UDEF_STEREO_COUNT>
0

> <PUBCHEM_BOND_DEF_STEREO_COUNT>
0

> <PUBCHEM_BOND_UDEF_STEREO_COUNT>
0

> <PUBCHEM_ISOTOPIC_ATOM_COUNT>
0

> <PUBCHEM_COMPONENT_COUNT>
1

> <PUBCHEM_CACTVS_TAUTO_COUNT>
-1

> <PUBCHEM_COORDINATE_TYPE>
1
5
255

> <PUBCHEM_BONDANNOTATIONS>
1  10  8
1  17  8
11  14  8
12  15  8
13  17  8
14  15  8
16  18  8
16  19  8
18  20  8
19  21  8
2  7  8
2  9  8
20  22  8
21  22  8
3  8  8
3  9  8
4  10  8
4  13  8
7  11  8
7  8  8
8  12  8

$$$$
