49830534
  -OEChem-03202504172D

 75 79  0     1  0  0  0  0  0999 V2000
    2.8660    1.5432    0.0000 O   0  0  0  0  0  0  0  0  0  0  0  0
   11.6038    2.5057    0.0000 O   0  0  0  0  0  0  0  0  0  0  0  0
    9.8564   -1.4876    0.0000 O   0  0  0  0  0  0  0  0  0  0  0  0
    4.5981   -0.4568    0.0000 N   0  0  3  0  0  0  0  0  0  0  0  0
    4.5981    1.5432    0.0000 N   0  0  0  0  0  0  0  0  0  0  0  0
    6.3580   -0.4915    0.0000 N   0  0  0  0  0  0  0  0  0  0  0  0
   12.4641    1.0023    0.0000 N   0  0  0  0  0  0  0  0  0  0  0  0
    7.2641    1.0640    0.0000 N   0  0  0  0  0  0  0  0  0  0  0  0
    8.1282   -0.4810    0.0000 N   0  0  0  0  0  0  0  0  0  0  0  0
    4.5981   -1.4568    0.0000 C   0  0  0  0  0  0  0  0  0  0  0  0
    3.7891   -2.0446    0.0000 C   0  0  0  0  0  0  0  0  0  0  0  0
    5.4071   -2.0446    0.0000 C   0  0  0  0  0  0  0  0  0  0  0  0
    4.0981   -2.9956    0.0000 C   0  0  0  0  0  0  0  0  0  0  0  0
    5.0981   -2.9956    0.0000 C   0  0  0  0  0  0  0  0  0  0  0  0
    3.7320    0.0432    0.0000 C   0  0  3  0  0  0  0  0  0  0  0  0
    5.4641    0.0432    0.0000 C   0  0  0  0  0  0  0  0  0  0  0  0
    2.8660   -0.4568    0.0000 C   0  0  0  0  0  0  0  0  0  0  0  0
    3.7320    1.0432    0.0000 C   0  0  0  0  0  0  0  0  0  0  0  0
    5.4641    1.0432    0.0000 C   0  0  0  0  0  0  0  0  0  0  0  0
   13.3320    1.4990    0.0000 C   0  0  0  0  0  0  0  0  0  0  0  0
   14.1961    0.9957    0.0000 C   0  0  0  0  0  0  0  0  0  0  0  0
   13.3359    2.4990    0.0000 C   0  0  0  0  0  0  0  0  0  0  0  0
   15.0641    1.4923    0.0000 C   0  0  0  0  0  0  0  0  0  0  0  0
   14.2038    2.9956    0.0000 C   0  0  0  0  0  0  0  0  0  0  0  0
   15.0679    2.4923    0.0000 C   0  0  0  0  0  0  0  0  0  0  0  0
    2.0000    0.0432    0.0000 C   0  0  0  0  0  0  0  0  0  0  0  0
    6.3580    1.5778    0.0000 C   0  0  0  0  0  0  0  0  0  0  0  0
    4.5981    2.5432    0.0000 C   0  0  0  0  0  0  0  0  0  0  0  0
    7.2641    0.0224    0.0000 C   0  0  0  0  0  0  0  0  0  0  0  0
   11.6000    1.5057    0.0000 C   0  0  0  0  0  0  0  0  0  0  0  0
   10.7320    1.0090    0.0000 C   0  0  0  0  0  0  0  0  0  0  0  0
    8.9962    0.0157    0.0000 C   0  0  0  0  0  0  0  0  0  0  0  0
    9.8602   -0.4876    0.0000 C   0  0  0  0  0  0  0  0  0  0  0  0
   10.7282    0.0090    0.0000 C   0  0  0  0  0  0  0  0  0  0  0  0
    9.8680    1.5124    0.0000 C   0  0  0  0  0  0  0  0  0  0  0  0
    9.0000    1.0157    0.0000 C   0  0  0  0  0  0  0  0  0  0  0  0
   10.7205   -1.9910    0.0000 C   0  0  0  0  0  0  0  0  0  0  0  0
    5.1505   -1.1753    0.0000 H   0  0  0  0  0  0  0  0  0  0  0  0
    3.4791   -1.5077    0.0000 H   0  0  0  0  0  0  0  0  0  0  0  0
    3.2227   -2.2968    0.0000 H   0  0  0  0  0  0  0  0  0  0  0  0
    5.9735   -2.2968    0.0000 H   0  0  0  0  0  0  0  0  0  0  0  0
    5.7171   -1.5077    0.0000 H   0  0  0  0  0  0  0  0  0  0  0  0
    3.4916   -3.1246    0.0000 H   0  0  0  0  0  0  0  0  0  0  0  0
    4.1629   -3.6122    0.0000 H   0  0  0  0  0  0  0  0  0  0  0  0
    5.0333   -3.6122    0.0000 H   0  0  0  0  0  0  0  0  0  0  0  0
    5.7045   -3.1246    0.0000 H   0  0  0  0  0  0  0  0  0  0  0  0
    3.7320   -0.5768    0.0000 H   0  0  0  0  0  0  0  0  0  0  0  0
    2.4675   -0.9318    0.0000 H   0  0  0  0  0  0  0  0  0  0  0  0
    3.2646   -0.9318    0.0000 H   0  0  0  0  0  0  0  0  0  0  0  0
   12.7963    1.8111    0.0000 H   0  0  0  0  0  0  0  0  0  0  0  0
   13.7958    0.5223    0.0000 H   0  0  0  0  0  0  0  0  0  0  0  0
   14.5928    0.5192    0.0000 H   0  0  0  0  0  0  0  0  0  0  0  0
   13.1261    3.0824    0.0000 H   0  0  0  0  0  0  0  0  0  0  0  0
   12.7249    2.3937    0.0000 H   0  0  0  0  0  0  0  0  0  0  0  0
   15.2739    0.9089    0.0000 H   0  0  0  0  0  0  0  0  0  0  0  0
   15.6751    1.5976    0.0000 H   0  0  0  0  0  0  0  0  0  0  0  0
   14.6042    3.4691    0.0000 H   0  0  0  0  0  0  0  0  0  0  0  0
   13.8071    3.4721    0.0000 H   0  0  0  0  0  0  0  0  0  0  0  0
   15.6781    2.3823    0.0000 H   0  0  0  0  0  0  0  0  0  0  0  0
   15.2822    3.0741    0.0000 H   0  0  0  0  0  0  0  0  0  0  0  0
    2.3100    0.5801    0.0000 H   0  0  0  0  0  0  0  0  0  0  0  0
    1.4631    0.3532    0.0000 H   0  0  0  0  0  0  0  0  0  0  0  0
    1.6900   -0.4937    0.0000 H   0  0  0  0  0  0  0  0  0  0  0  0
    6.3509    2.1978    0.0000 H   0  0  0  0  0  0  0  0  0  0  0  0
    5.2181    2.5432    0.0000 H   0  0  0  0  0  0  0  0  0  0  0  0
    4.5981    3.1632    0.0000 H   0  0  0  0  0  0  0  0  0  0  0  0
    3.9781    2.5432    0.0000 H   0  0  0  0  0  0  0  0  0  0  0  0
   12.4617    0.3823    0.0000 H   0  0  0  0  0  0  0  0  0  0  0  0
    8.1258   -1.1010    0.0000 H   0  0  0  0  0  0  0  0  0  0  0  0
   11.2639   -0.3030    0.0000 H   0  0  0  0  0  0  0  0  0  0  0  0
    9.8703    2.1324    0.0000 H   0  0  0  0  0  0  0  0  0  0  0  0
    8.4643    1.3278    0.0000 H   0  0  0  0  0  0  0  0  0  0  0  0
   10.4084   -2.5267    0.0000 H   0  0  0  0  0  0  0  0  0  0  0  0
   11.2562   -2.3030    0.0000 H   0  0  0  0  0  0  0  0  0  0  0  0
   11.0325   -1.4552    0.0000 H   0  0  0  0  0  0  0  0  0  0  0  0
  1 18  2  0  0  0  0
  2 30  2  0  0  0  0
  3 33  1  0  0  0  0
  3 37  1  0  0  0  0
  4 10  1  0  0  0  0
  4 15  1  0  0  0  0
  4 16  1  0  0  0  0
  5 18  1  0  0  0  0
  5 19  1  0  0  0  0
  5 28  1  0  0  0  0
  6 16  2  0  0  0  0
  6 29  1  0  0  0  0
  7 20  1  0  0  0  0
  7 30  1  0  0  0  0
  7 68  1  0  0  0  0
  8 27  1  0  0  0  0
  8 29  2  0  0  0  0
  9 29  1  0  0  0  0
  9 32  1  0  0  0  0
  9 69  1  0  0  0  0
 10 11  1  0  0  0  0
 10 12  1  0  0  0  0
 10 38  1  0  0  0  0
 11 13  1  0  0  0  0
 11 39  1  0  0  0  0
 11 40  1  0  0  0  0
 12 14  1  0  0  0  0
 12 41  1  0  0  0  0
 12 42  1  0  0  0  0
 13 14  1  0  0  0  0
 13 43  1  0  0  0  0
 13 44  1  0  0  0  0
 14 45  1  0  0  0  0
 14 46  1  0  0  0  0
 15 17  1  0  0  0  0
 15 18  1  0  0  0  0
 15 47  1  0  0  0  0
 16 19  1  0  0  0  0
 17 26  1  0  0  0  0
 17 48  1  0  0  0  0
 17 49  1  0  0  0  0
 19 27  2  0  0  0  0
 20 21  1  0  0  0  0
 20 22  1  0  0  0  0
 20 50  1  0  0  0  0
 21 23  1  0  0  0  0
 21 51  1  0  0  0  0
 21 52  1  0  0  0  0
 22 24  1  0  0  0  0
 22 53  1  0  0  0  0
 22 54  1  0  0  0  0
 23 25  1  0  0  0  0
 23 55  1  0  0  0  0
 23 56  1  0  0  0  0
 24 25  1  0  0  0  0
 24 57  1  0  0  0  0
 24 58  1  0  0  0  0
 25 59  1  0  0  0  0
 25 60  1  0  0  0  0
 26 61  1  0  0  0  0
 26 62  1  0  0  0  0
 26 63  1  0  0  0  0
 27 64  1  0  0  0  0
 28 65  1  0  0  0  0
 28 66  1  0  0  0  0
 28 67  1  0  0  0  0
 30 31  1  0  0  0  0
 31 34  2  0  0  0  0
 31 35  1  0  0  0  0
 32 33  2  0  0  0  0
 32 36  1  0  0  0  0
 33 34  1  0  0  0  0
 34 70  1  0  0  0  0
 35 36  2  0  0  0  0
 35 71  1  0  0  0  0
 36 72  1  0  0  0  0
 37 73  1  0  0  0  0
 37 74  1  0  0  0  0
 37 75  1  0  0  0  0
M  END
> <PUBCHEM_COMPOUND_CID>
49830534

> <PUBCHEM_COMPOUND_CANONICALIZED>
1

> <PUBCHEM_CACTVS_COMPLEXITY>
786

> <PUBCHEM_CACTVS_HBOND_ACCEPTOR>
7

> <PUBCHEM_CACTVS_HBOND_DONOR>
2

> <PUBCHEM_CACTVS_ROTATABLE_BOND>
7

> <PUBCHEM_CACTVS_SUBSKEYS>
AAADcfB7sAAAAAAAAAAAAAAAAAAAAYAAAAA8eIEAAAAAAACxwAAAHgAQAAAADCzBmgY/9pfIFACoAjd3dACCiCk1MqAJ2KGvfNiObrLE/fuVNShs1hPY6ae6yRCeCAABAAAAEAAQAAIAAAAgAAAAAAAAAA==

> <PUBCHEM_IUPAC_OPENEYE_NAME>
N-cyclohexyl-4-[(8-cyclopentyl-7-ethyl-5-methyl-6-oxo-7H-pteridin-2-yl)amino]-3-methoxy-benzamide

> <PUBCHEM_IUPAC_CAS_NAME>
N-cyclohexyl-4-[(8-cyclopentyl-7-ethyl-5-methyl-6-oxo-7H-pteridin-2-yl)amino]-3-methoxybenzamide

> <PUBCHEM_IUPAC_NAME_MARKUP>
<I>N</I>-cyclohexyl-4-[(8-cyclopentyl-7-ethyl-5-methyl-6-oxo-7<I>H</I>-pteridin-2-yl)amino]-3-methoxybenzamide

> <PUBCHEM_IUPAC_NAME>
N-cyclohexyl-4-[(8-cyclopentyl-7-ethyl-5-methyl-6-oxo-7H-pteridin-2-yl)amino]-3-methoxybenzamide

> <PUBCHEM_IUPAC_SYSTEMATIC_NAME>
N-cyclohexyl-4-[(8-cyclopentyl-7-ethyl-5-methyl-6-oxidanylidene-7H-pteridin-2-yl)amino]-3-methoxy-benzamide

> <PUBCHEM_IUPAC_TRADITIONAL_NAME>
N-cyclohexyl-4-[(8-cyclopentyl-7-ethyl-6-keto-5-methyl-7H-pteridin-2-yl)amino]-3-methoxy-benzamide

> <PUBCHEM_IUPAC_INCHI>
InChI=1S/C28H38N6O3/c1-4-22-27(36)33(2)23-17-29-28(32-25(23)34(22)20-12-8-9-13-20)31-21-15-14-18(16-24(21)37-3)26(35)30-19-10-6-5-7-11-19/h14-17,19-20,22H,4-13H2,1-3H3,(H,30,35)(H,29,31,32)

> <PUBCHEM_IUPAC_INCHIKEY>
QPTZMGCTRHKKJD-UHFFFAOYSA-N

> <PUBCHEM_XLOGP3_AA>
5

> <PUBCHEM_EXACT_MASS>
506.30053910

> <PUBCHEM_MOLECULAR_FORMULA>
C28H38N6O3

> <PUBCHEM_MOLECULAR_WEIGHT>
506.6

> <PUBCHEM_SMILES>
CCC1C(=O)N(C2=CN=C(N=C2N1C3CCCC3)NC4=C(C=C(C=C4)C(=O)NC5CCCCC5)OC)C

> <PUBCHEM_OPENEYE_CAN_SMILES>
CCC1C(=O)N(C2=CN=C(N=C2N1C3CCCC3)NC4=C(C=C(C=C4)C(=O)NC5CCCCC5)OC)C

> <PUBCHEM_OPENEYE_ISO_SMILES>
CCC1C(=O)N(C2=CN=C(N=C2N1C3CCCC3)NC4=C(C=C(C=C4)C(=O)NC5CCCCC5)OC)C

> <PUBCHEM_CACTVS_TPSA>
99.7

> <PUBCHEM_MONOISOTOPIC_WEIGHT>
506.30053910

> <PUBCHEM_TOTAL_CHARGE>
0

> <PUBCHEM_HEAVY_ATOM_COUNT>
37

> <PUBCHEM_ATOM_DEF_STEREO_COUNT>
0

> <PUBCHEM_ATOM_UDEF_STEREO_COUNT>
1

> <PUBCHEM_BOND_DEF_STEREO_COUNT>
0

> <PUBCHEM_BOND_UDEF_STEREO_COUNT>
0

> <PUBCHEM_ISOTOPIC_ATOM_COUNT>
0

> <PUBCHEM_COMPONENT_COUNT>
1

> <PUBCHEM_CACTVS_TAUTO_COUNT>
-1

> <PUBCHEM_COORDINATE_TYPE>
1
5
255

> <PUBCHEM_BONDANNOTATIONS>
15  17  3
16  19  8
19  27  8
31  34  8
31  35  8
32  33  8
32  36  8
33  34  8
35  36  8
6  16  8
6  29  8
8  27  8
8  29  8

$$$$
