10061448
  -OEChem-03202505142D

 34 36  0     0  0  0  0  0  0999 V2000
    2.0000    0.7363    0.0000 O   0  0  0  0  0  0  0  0  0  0  0  0
    2.0000   -1.2637    0.0000 O   0  0  0  0  0  0  0  0  0  0  0  0
    5.4920   -1.2984    0.0000 N   0  0  0  0  0  0  0  0  0  0  0  0
    8.9904    1.7671    0.0000 N   0  0  0  0  0  0  0  0  0  0  0  0
    4.5981    0.2363    0.0000 C   0  0  0  0  0  0  0  0  0  0  0  0
    4.5981   -0.7637    0.0000 C   0  0  0  0  0  0  0  0  0  0  0  0
    6.3981    0.2571    0.0000 C   0  0  0  0  0  0  0  0  0  0  0  0
    5.4920    0.7709    0.0000 C   0  0  0  0  0  0  0  0  0  0  0  0
    3.7320    0.7363    0.0000 C   0  0  0  0  0  0  0  0  0  0  0  0
    3.7320   -1.2637    0.0000 C   0  0  0  0  0  0  0  0  0  0  0  0
    2.8660    0.2363    0.0000 C   0  0  0  0  0  0  0  0  0  0  0  0
    2.8660   -0.7637    0.0000 C   0  0  0  0  0  0  0  0  0  0  0  0
    7.2622    0.7604    0.0000 C   0  0  0  0  0  0  0  0  0  0  0  0
    6.3981   -0.7846    0.0000 C   0  0  0  0  0  0  0  0  0  0  0  0
    8.1301    0.2638    0.0000 C   0  0  0  0  0  0  0  0  0  0  0  0
    7.2583    1.7604    0.0000 C   0  0  0  0  0  0  0  0  0  0  0  0
    8.9942    0.7671    0.0000 C   0  0  0  0  0  0  0  0  0  0  0  0
    8.1224    2.2637    0.0000 C   0  0  0  0  0  0  0  0  0  0  0  0
    2.0000    1.7363    0.0000 C   0  0  0  0  0  0  0  0  0  0  0  0
    2.0000   -2.2637    0.0000 C   0  0  0  0  0  0  0  0  0  0  0  0
    5.4848    1.3909    0.0000 H   0  0  0  0  0  0  0  0  0  0  0  0
    3.7320    1.3563    0.0000 H   0  0  0  0  0  0  0  0  0  0  0  0
    3.7320   -1.8837    0.0000 H   0  0  0  0  0  0  0  0  0  0  0  0
    6.9338   -1.0966    0.0000 H   0  0  0  0  0  0  0  0  0  0  0  0
    8.1325   -0.3562    0.0000 H   0  0  0  0  0  0  0  0  0  0  0  0
    6.7202    2.0683    0.0000 H   0  0  0  0  0  0  0  0  0  0  0  0
    9.5323    0.4592    0.0000 H   0  0  0  0  0  0  0  0  0  0  0  0
    8.1200    2.8837    0.0000 H   0  0  0  0  0  0  0  0  0  0  0  0
    2.6200    1.7363    0.0000 H   0  0  0  0  0  0  0  0  0  0  0  0
    2.0000    2.3563    0.0000 H   0  0  0  0  0  0  0  0  0  0  0  0
    1.3800    1.7363    0.0000 H   0  0  0  0  0  0  0  0  0  0  0  0
    1.3800   -2.2637    0.0000 H   0  0  0  0  0  0  0  0  0  0  0  0
    2.0000   -2.8837    0.0000 H   0  0  0  0  0  0  0  0  0  0  0  0
    2.6200   -2.2637    0.0000 H   0  0  0  0  0  0  0  0  0  0  0  0
  1 11  1  0  0  0  0
  1 19  1  0  0  0  0
  2 12  1  0  0  0  0
  2 20  1  0  0  0  0
  3  6  2  0  0  0  0
  3 14  1  0  0  0  0
  4 17  2  0  0  0  0
  4 18  1  0  0  0  0
  5  6  1  0  0  0  0
  5  8  2  0  0  0  0
  5  9  1  0  0  0  0
  6 10  1  0  0  0  0
  7  8  1  0  0  0  0
  7 13  1  0  0  0  0
  7 14  2  0  0  0  0
  8 21  1  0  0  0  0
  9 11  2  0  0  0  0
  9 22  1  0  0  0  0
 10 12  2  0  0  0  0
 10 23  1  0  0  0  0
 11 12  1  0  0  0  0
 13 15  2  0  0  0  0
 13 16  1  0  0  0  0
 14 24  1  0  0  0  0
 15 17  1  0  0  0  0
 15 25  1  0  0  0  0
 16 18  2  0  0  0  0
 16 26  1  0  0  0  0
 17 27  1  0  0  0  0
 18 28  1  0  0  0  0
 19 29  1  0  0  0  0
 19 30  1  0  0  0  0
 19 31  1  0  0  0  0
 20 32  1  0  0  0  0
 20 33  1  0  0  0  0
 20 34  1  0  0  0  0
M  END
> <PUBCHEM_COMPOUND_CID>
10061448

> <PUBCHEM_COMPOUND_CANONICALIZED>
1

> <PUBCHEM_CACTVS_COMPLEXITY>
307

> <PUBCHEM_CACTVS_HBOND_ACCEPTOR>
4

> <PUBCHEM_CACTVS_HBOND_DONOR>
0

> <PUBCHEM_CACTVS_ROTATABLE_BOND>
3

> <PUBCHEM_CACTVS_SUBSKEYS>
AAADccB7MAAAAAAAAAAAAAAAAAAAAAAAAAA8WIAAAAAAAACx/AAAHgAAAAAADAzBngY+xvIIFACgAzRnRACCiCAxIiAI2CA+7JgNJuLEsZuEMCpmwBnK6Aew0PMOoEABAgACQABAgAIEAASAAAAAAAAAAA==

> <PUBCHEM_IUPAC_OPENEYE_NAME>
6,7-dimethoxy-3-(4-pyridyl)quinoline

> <PUBCHEM_IUPAC_CAS_NAME>
6,7-dimethoxy-3-pyridin-4-ylquinoline

> <PUBCHEM_IUPAC_NAME_MARKUP>
6,7-dimethoxy-3-pyridin-4-ylquinoline

> <PUBCHEM_IUPAC_NAME>
6,7-dimethoxy-3-pyridin-4-ylquinoline

> <PUBCHEM_IUPAC_SYSTEMATIC_NAME>
6,7-dimethoxy-3-pyridin-4-yl-quinoline

> <PUBCHEM_IUPAC_TRADITIONAL_NAME>
6,7-dimethoxy-3-(4-pyridyl)quinoline

> <PUBCHEM_IUPAC_INCHI>
InChI=1S/C16H14N2O2/c1-19-15-8-12-7-13(11-3-5-17-6-4-11)10-18-14(12)9-16(15)20-2/h3-10H,1-2H3

> <PUBCHEM_IUPAC_INCHIKEY>
GDUOSVIOUNAARR-UHFFFAOYSA-N

> <PUBCHEM_XLOGP3_AA>
2.7

> <PUBCHEM_EXACT_MASS>
266.105527694

> <PUBCHEM_MOLECULAR_FORMULA>
C16H14N2O2

> <PUBCHEM_MOLECULAR_WEIGHT>
266.29

> <PUBCHEM_SMILES>
COC1=CC2=CC(=CN=C2C=C1OC)C3=CC=NC=C3

> <PUBCHEM_OPENEYE_CAN_SMILES>
COC1=CC2=CC(=CN=C2C=C1OC)C3=CC=NC=C3

> <PUBCHEM_OPENEYE_ISO_SMILES>
COC1=CC2=CC(=CN=C2C=C1OC)C3=CC=NC=C3

> <PUBCHEM_CACTVS_TPSA>
44.2

> <PUBCHEM_MONOISOTOPIC_WEIGHT>
266.105527694

> <PUBCHEM_TOTAL_CHARGE>
0

> <PUBCHEM_HEAVY_ATOM_COUNT>
20

> <PUBCHEM_ATOM_DEF_STEREO_COUNT>
0

> <PUBCHEM_ATOM_UDEF_STEREO_COUNT>
0

> <PUBCHEM_BOND_DEF_STEREO_COUNT>
0

> <PUBCHEM_BOND_UDEF_STEREO_COUNT>
0

> <PUBCHEM_ISOTOPIC_ATOM_COUNT>
0

> <PUBCHEM_COMPONENT_COUNT>
1

> <PUBCHEM_CACTVS_TAUTO_COUNT>
-1

> <PUBCHEM_COORDINATE_TYPE>
1
5
255

> <PUBCHEM_BONDANNOTATIONS>
10  12  8
11  12  8
13  15  8
13  16  8
15  17  8
16  18  8
3  14  8
3  6  8
4  17  8
4  18  8
5  6  8
5  8  8
5  9  8
6  10  8
7  14  8
7  8  8
9  11  8

$$$$
