11846124
  -OEChem-03202506162D

 44 45  0     0  0  0  0  0  0999 V2000
    3.0000   -3.9050    0.0000 S   0  0  0  0  0  0  0  0  0  0  0  0
    2.0000   -3.9050    0.0000 O   0  0  0  0  0  0  0  0  0  0  0  0
    4.0000   -3.9050    0.0000 O   0  0  0  0  0  0  0  0  0  0  0  0
    7.3301    1.5950    0.0000 O   0  0  0  0  0  0  0  0  0  0  0  0
    3.0000    2.0950    0.0000 O   0  0  0  0  0  0  0  0  0  0  0  0
    3.8660    0.5950    0.0000 N   0  0  0  0  0  0  0  0  0  0  0  0
    5.5981    1.5950    0.0000 N   0  0  0  0  0  0  0  0  0  0  0  0
    5.5981    4.5950    0.0000 N   0  0  0  0  0  0  0  0  0  0  0  0
    8.1962    4.0950    0.0000 N   0  0  0  0  0  0  0  0  0  0  0  0
    3.0000   -0.9050    0.0000 C   0  0  0  0  0  0  0  0  0  0  0  0
    3.0000   -2.9050    0.0000 C   0  0  0  0  0  0  0  0  0  0  0  0
    3.0000    0.0950    0.0000 C   0  0  0  0  0  0  0  0  0  0  0  0
    3.8660   -1.4050    0.0000 C   0  0  0  0  0  0  0  0  0  0  0  0
    2.1340   -1.4050    0.0000 C   0  0  0  0  0  0  0  0  0  0  0  0
    3.8660   -2.4050    0.0000 C   0  0  0  0  0  0  0  0  0  0  0  0
    2.1340   -2.4050    0.0000 C   0  0  0  0  0  0  0  0  0  0  0  0
    3.0000   -4.9050    0.0000 C   0  0  0  0  0  0  0  0  0  0  0  0
    3.8660    1.5950    0.0000 C   0  0  0  0  0  0  0  0  0  0  0  0
    4.7320    2.0950    0.0000 C   0  0  0  0  0  0  0  0  0  0  0  0
    4.7320    3.0950    0.0000 C   0  0  0  0  0  0  0  0  0  0  0  0
    5.5981    3.5950    0.0000 C   0  0  0  0  0  0  0  0  0  0  0  0
    6.4641    2.0950    0.0000 C   0  0  0  0  0  0  0  0  0  0  0  0
    6.4641    3.0950    0.0000 C   0  0  0  0  0  0  0  0  0  0  0  0
    7.3301    0.5950    0.0000 C   0  0  0  0  0  0  0  0  0  0  0  0
    8.1962    0.0950    0.0000 C   0  0  0  0  0  0  0  0  0  0  0  0
    7.3301    3.5950    0.0000 C   0  0  0  0  0  0  0  0  0  0  0  0
    2.7880    0.6776    0.0000 H   0  0  0  0  0  0  0  0  0  0  0  0
    2.3894   -0.0127    0.0000 H   0  0  0  0  0  0  0  0  0  0  0  0
    4.4030   -1.0950    0.0000 H   0  0  0  0  0  0  0  0  0  0  0  0
    1.5970   -1.0950    0.0000 H   0  0  0  0  0  0  0  0  0  0  0  0
    4.4030   -2.7150    0.0000 H   0  0  0  0  0  0  0  0  0  0  0  0
    1.5970   -2.7150    0.0000 H   0  0  0  0  0  0  0  0  0  0  0  0
    4.4030    0.2850    0.0000 H   0  0  0  0  0  0  0  0  0  0  0  0
    2.3800   -4.9050    0.0000 H   0  0  0  0  0  0  0  0  0  0  0  0
    3.0000   -5.5250    0.0000 H   0  0  0  0  0  0  0  0  0  0  0  0
    3.6200   -4.9050    0.0000 H   0  0  0  0  0  0  0  0  0  0  0  0
    4.1951    3.4050    0.0000 H   0  0  0  0  0  0  0  0  0  0  0  0
    6.7196    0.7027    0.0000 H   0  0  0  0  0  0  0  0  0  0  0  0
    7.1181    0.0124    0.0000 H   0  0  0  0  0  0  0  0  0  0  0  0
    5.0611    4.9050    0.0000 H   0  0  0  0  0  0  0  0  0  0  0  0
    6.1350    4.9050    0.0000 H   0  0  0  0  0  0  0  0  0  0  0  0
    7.8862   -0.4419    0.0000 H   0  0  0  0  0  0  0  0  0  0  0  0
    8.7331   -0.2150    0.0000 H   0  0  0  0  0  0  0  0  0  0  0  0
    8.5062    0.6319    0.0000 H   0  0  0  0  0  0  0  0  0  0  0  0
  1  2  2  0  0  0  0
  1  3  2  0  0  0  0
  1 11  1  0  0  0  0
  1 17  1  0  0  0  0
  4 22  1  0  0  0  0
  4 24  1  0  0  0  0
  5 18  2  0  0  0  0
  6 12  1  0  0  0  0
  6 18  1  0  0  0  0
  6 33  1  0  0  0  0
  7 19  2  0  0  0  0
  7 22  1  0  0  0  0
  8 21  1  0  0  0  0
  8 40  1  0  0  0  0
  8 41  1  0  0  0  0
  9 26  3  0  0  0  0
 10 12  1  0  0  0  0
 10 13  2  0  0  0  0
 10 14  1  0  0  0  0
 11 15  2  0  0  0  0
 11 16  1  0  0  0  0
 12 27  1  0  0  0  0
 12 28  1  0  0  0  0
 13 15  1  0  0  0  0
 13 29  1  0  0  0  0
 14 16  2  0  0  0  0
 14 30  1  0  0  0  0
 15 31  1  0  0  0  0
 16 32  1  0  0  0  0
 17 34  1  0  0  0  0
 17 35  1  0  0  0  0
 17 36  1  0  0  0  0
 18 19  1  0  0  0  0
 19 20  1  0  0  0  0
 20 21  2  0  0  0  0
 20 37  1  0  0  0  0
 21 23  1  0  0  0  0
 22 23  2  0  0  0  0
 23 26  1  0  0  0  0
 24 25  1  0  0  0  0
 24 38  1  0  0  0  0
 24 39  1  0  0  0  0
 25 42  1  0  0  0  0
 25 43  1  0  0  0  0
 25 44  1  0  0  0  0
M  END
> <PUBCHEM_COMPOUND_CID>
11846124

> <PUBCHEM_COMPOUND_CANONICALIZED>
1

> <PUBCHEM_CACTVS_COMPLEXITY>
631

> <PUBCHEM_CACTVS_HBOND_ACCEPTOR>
7

> <PUBCHEM_CACTVS_HBOND_DONOR>
2

> <PUBCHEM_CACTVS_ROTATABLE_BOND>
6

> <PUBCHEM_CACTVS_SUBSKEYS>
AAADceB7uABAAAAAAAAAAAAAAAAAAAAAAAA8QAAAAAAAAAABwAAAHgQQAAAADAjh3gayxZLIFAq4ByVyVHDiiCAnKjAImLm8bNgM5nLk9fuePSjm1hnI6Y+c2AEOEAAAAAAAAAAgAAAAAAAAAAAAAAAAAA==

> <PUBCHEM_IUPAC_OPENEYE_NAME>
4-amino-5-cyano-6-ethoxy-N-[(4-methylsulfonylphenyl)methyl]pyridine-2-carboxamide

> <PUBCHEM_IUPAC_CAS_NAME>
4-amino-5-cyano-6-ethoxy-N-[(4-methylsulfonylphenyl)methyl]-2-pyridinecarboxamide

> <PUBCHEM_IUPAC_NAME_MARKUP>
4-amino-5-cyano-6-ethoxy-<I>N</I>-[(4-methylsulfonylphenyl)methyl]pyridine-2-carboxamide

> <PUBCHEM_IUPAC_NAME>
4-amino-5-cyano-6-ethoxy-N-[(4-methylsulfonylphenyl)methyl]pyridine-2-carboxamide

> <PUBCHEM_IUPAC_SYSTEMATIC_NAME>
4-azanyl-5-cyano-6-ethoxy-N-[(4-methylsulfonylphenyl)methyl]pyridine-2-carboxamide

> <PUBCHEM_IUPAC_TRADITIONAL_NAME>
4-amino-5-cyano-6-ethoxy-N-(4-mesylbenzyl)picolinamide

> <PUBCHEM_IUPAC_INCHI>
InChI=1S/C17H18N4O4S/c1-3-25-17-13(9-18)14(19)8-15(21-17)16(22)20-10-11-4-6-12(7-5-11)26(2,23)24/h4-8H,3,10H2,1-2H3,(H2,19,21)(H,20,22)

> <PUBCHEM_IUPAC_INCHIKEY>
CUIDQTVRAWOMCM-UHFFFAOYSA-N

> <PUBCHEM_XLOGP3_AA>
1.5

> <PUBCHEM_EXACT_MASS>
374.10487624

> <PUBCHEM_MOLECULAR_FORMULA>
C17H18N4O4S

> <PUBCHEM_MOLECULAR_WEIGHT>
374.4

> <PUBCHEM_SMILES>
CCOC1=C(C(=CC(=N1)C(=O)NCC2=CC=C(C=C2)S(=O)(=O)C)N)C#N

> <PUBCHEM_OPENEYE_CAN_SMILES>
CCOC1=C(C(=CC(=N1)C(=O)NCC2=CC=C(C=C2)S(=O)(=O)C)N)C#N

> <PUBCHEM_OPENEYE_ISO_SMILES>
CCOC1=C(C(=CC(=N1)C(=O)NCC2=CC=C(C=C2)S(=O)(=O)C)N)C#N

> <PUBCHEM_CACTVS_TPSA>
144

> <PUBCHEM_MONOISOTOPIC_WEIGHT>
374.10487624

> <PUBCHEM_TOTAL_CHARGE>
0

> <PUBCHEM_HEAVY_ATOM_COUNT>
26

> <PUBCHEM_ATOM_DEF_STEREO_COUNT>
0

> <PUBCHEM_ATOM_UDEF_STEREO_COUNT>
0

> <PUBCHEM_BOND_DEF_STEREO_COUNT>
0

> <PUBCHEM_BOND_UDEF_STEREO_COUNT>
0

> <PUBCHEM_ISOTOPIC_ATOM_COUNT>
0

> <PUBCHEM_COMPONENT_COUNT>
1

> <PUBCHEM_CACTVS_TAUTO_COUNT>
-1

> <PUBCHEM_COORDINATE_TYPE>
1
5
255

> <PUBCHEM_BONDANNOTATIONS>
10  13  8
10  14  8
11  15  8
11  16  8
13  15  8
14  16  8
19  20  8
20  21  8
21  23  8
22  23  8
7  19  8
7  22  8

$$$$
