10275001
  -OEChem-03202500212D

 61 66  0     0  0  0  0  0  0999 V2000
    9.6253    3.4236    0.0000 O   0  0  0  0  0  0  0  0  0  0  0  0
    7.6855   -3.8030    0.0000 O   0  0  0  0  0  0  0  0  0  0  0  0
    2.6067   -0.5749    0.0000 O   0  0  0  0  0  0  0  0  0  0  0  0
    5.8994    0.5013    0.0000 N   0  0  0  0  0  0  0  0  0  0  0  0
    9.8983    1.6683    0.0000 N   0  0  0  0  0  0  0  0  0  0  0  0
    6.6364    1.1683    0.0000 C   0  0  0  0  0  0  0  0  0  0  0  0
    6.6364    2.1683    0.0000 C   0  0  0  0  0  0  0  0  0  0  0  0
    7.5024    0.6683    0.0000 C   0  0  0  0  0  0  0  0  0  0  0  0
    7.5024    2.6683    0.0000 C   0  0  0  0  0  0  0  0  0  0  0  0
    8.3684    1.1683    0.0000 C   0  0  0  0  0  0  0  0  0  0  0  0
    8.3684    2.1683    0.0000 C   0  0  0  0  0  0  0  0  0  0  0  0
    5.8994    2.8354    0.0000 C   0  0  0  0  0  0  0  0  0  0  0  0
    7.2932   -0.3035    0.0000 C   0  0  0  0  0  0  0  0  0  0  0  0
    6.3045   -0.4065    0.0000 C   0  0  0  0  0  0  0  0  0  0  0  0
    7.2932    3.6402    0.0000 C   0  0  0  0  0  0  0  0  0  0  0  0
    6.3045    3.7432    0.0000 C   0  0  0  0  0  0  0  0  0  0  0  0
    9.3147    0.8636    0.0000 C   0  0  0  0  0  0  0  0  0  0  0  0
    4.9209    0.7075    0.0000 C   0  0  0  0  0  0  0  0  0  0  0  0
    9.3147    2.4731    0.0000 C   0  0  0  0  0  0  0  0  0  0  0  0
    7.9140   -1.1322    0.0000 C   0  0  0  0  0  0  0  0  0  0  0  0
    5.8680   -1.3455    0.0000 C   0  0  0  0  0  0  0  0  0  0  0  0
    4.2530   -0.0368    0.0000 C   0  0  0  0  0  0  0  0  0  0  0  0
    7.9140    4.4689    0.0000 C   0  0  0  0  0  0  0  0  0  0  0  0
    5.8680    4.6822    0.0000 C   0  0  0  0  0  0  0  0  0  0  0  0
    7.4993   -2.0810    0.0000 C   0  0  0  0  0  0  0  0  0  0  0  0
    6.4694   -2.1884    0.0000 C   0  0  0  0  0  0  0  0  0  0  0  0
    7.4993    5.4177    0.0000 C   0  0  0  0  0  0  0  0  0  0  0  0
    6.4694    5.5251    0.0000 C   0  0  0  0  0  0  0  0  0  0  0  0
    8.0895   -2.8883    0.0000 C   0  0  0  0  0  0  0  0  0  0  0  0
    3.2745    0.1694    0.0000 C   0  0  0  0  0  0  0  0  0  0  0  0
    8.2757   -4.6103    0.0000 C   0  0  0  0  0  0  0  0  0  0  0  0
    7.8717   -5.5251    0.0000 C   0  0  0  0  0  0  0  0  0  0  0  0
    9.2699   -4.5028    0.0000 C   0  0  0  0  0  0  0  0  0  0  0  0
    5.3629    3.1462    0.0000 H   0  0  0  0  0  0  0  0  0  0  0  0
    5.5339    2.3346    0.0000 H   0  0  0  0  0  0  0  0  0  0  0  0
    9.0636    0.2967    0.0000 H   0  0  0  0  0  0  0  0  0  0  0  0
    9.8520    0.5544    0.0000 H   0  0  0  0  0  0  0  0  0  0  0  0
    5.1521    1.2827    0.0000 H   0  0  0  0  0  0  0  0  0  0  0  0
    4.3945    1.0351    0.0000 H   0  0  0  0  0  0  0  0  0  0  0  0
   10.5183    1.6683    0.0000 H   0  0  0  0  0  0  0  0  0  0  0  0
    8.5298   -1.0608    0.0000 H   0  0  0  0  0  0  0  0  0  0  0  0
    5.2506   -1.4026    0.0000 H   0  0  0  0  0  0  0  0  0  0  0  0
    4.0218   -0.6121    0.0000 H   0  0  0  0  0  0  0  0  0  0  0  0
    4.7794   -0.3645    0.0000 H   0  0  0  0  0  0  0  0  0  0  0  0
    8.5298    4.3975    0.0000 H   0  0  0  0  0  0  0  0  0  0  0  0
    5.2506    4.7393    0.0000 H   0  0  0  0  0  0  0  0  0  0  0  0
    6.2146   -2.7536    0.0000 H   0  0  0  0  0  0  0  0  0  0  0  0
    7.8652    5.9182    0.0000 H   0  0  0  0  0  0  0  0  0  0  0  0
    6.2146    6.0903    0.0000 H   0  0  0  0  0  0  0  0  0  0  0  0
    8.6045   -3.2335    0.0000 H   0  0  0  0  0  0  0  0  0  0  0  0
    8.5188   -2.4410    0.0000 H   0  0  0  0  0  0  0  0  0  0  0  0
    3.5058    0.7446    0.0000 H   0  0  0  0  0  0  0  0  0  0  0  0
    2.7482    0.4970    0.0000 H   0  0  0  0  0  0  0  0  0  0  0  0
    8.5262   -4.0432    0.0000 H   0  0  0  0  0  0  0  0  0  0  0  0
    2.0000   -0.4471    0.0000 H   0  0  0  0  0  0  0  0  0  0  0  0
    7.3045   -5.2746    0.0000 H   0  0  0  0  0  0  0  0  0  0  0  0
    7.6212   -6.0922    0.0000 H   0  0  0  0  0  0  0  0  0  0  0  0
    8.4388   -5.7756    0.0000 H   0  0  0  0  0  0  0  0  0  0  0  0
    9.3365   -5.1192    0.0000 H   0  0  0  0  0  0  0  0  0  0  0  0
    9.8863   -4.4362    0.0000 H   0  0  0  0  0  0  0  0  0  0  0  0
    9.2032   -3.8864    0.0000 H   0  0  0  0  0  0  0  0  0  0  0  0
  1 19  2  0  0  0  0
  2 29  1  0  0  0  0
  2 31  1  0  0  0  0
  3 30  1  0  0  0  0
  3 55  1  0  0  0  0
  4  6  1  0  0  0  0
  4 14  1  0  0  0  0
  4 18  1  0  0  0  0
  5 17  1  0  0  0  0
  5 19  1  0  0  0  0
  5 40  1  0  0  0  0
  6  7  1  0  0  0  0
  6  8  2  0  0  0  0
  7  9  2  0  0  0  0
  7 12  1  0  0  0  0
  8 10  1  0  0  0  0
  8 13  1  0  0  0  0
  9 11  1  0  0  0  0
  9 15  1  0  0  0  0
 10 11  2  0  0  0  0
 10 17  1  0  0  0  0
 11 19  1  0  0  0  0
 12 16  1  0  0  0  0
 12 34  1  0  0  0  0
 12 35  1  0  0  0  0
 13 14  2  0  0  0  0
 13 20  1  0  0  0  0
 14 21  1  0  0  0  0
 15 16  1  0  0  0  0
 15 23  2  0  0  0  0
 16 24  2  0  0  0  0
 17 36  1  0  0  0  0
 17 37  1  0  0  0  0
 18 22  1  0  0  0  0
 18 38  1  0  0  0  0
 18 39  1  0  0  0  0
 20 25  2  0  0  0  0
 20 41  1  0  0  0  0
 21 26  2  0  0  0  0
 21 42  1  0  0  0  0
 22 30  1  0  0  0  0
 22 43  1  0  0  0  0
 22 44  1  0  0  0  0
 23 27  1  0  0  0  0
 23 45  1  0  0  0  0
 24 28  1  0  0  0  0
 24 46  1  0  0  0  0
 25 26  1  0  0  0  0
 25 29  1  0  0  0  0
 26 47  1  0  0  0  0
 27 28  2  0  0  0  0
 27 48  1  0  0  0  0
 28 49  1  0  0  0  0
 29 50  1  0  0  0  0
 29 51  1  0  0  0  0
 30 52  1  0  0  0  0
 30 53  1  0  0  0  0
 31 32  1  0  0  0  0
 31 33  1  0  0  0  0
 31 54  1  0  0  0  0
 32 56  1  0  0  0  0
 32 57  1  0  0  0  0
 32 58  1  0  0  0  0
 33 59  1  0  0  0  0
 33 60  1  0  0  0  0
 33 61  1  0  0  0  0
M  END
> <PUBCHEM_COMPOUND_CID>
10275001

> <PUBCHEM_COMPOUND_CANONICALIZED>
1

> <PUBCHEM_CACTVS_COMPLEXITY>
728

> <PUBCHEM_CACTVS_HBOND_ACCEPTOR>
3

> <PUBCHEM_CACTVS_HBOND_DONOR>
2

> <PUBCHEM_CACTVS_ROTATABLE_BOND>
6

> <PUBCHEM_CACTVS_SUBSKEYS>
AAADceB7MAAAAAAAAAAAAAAAAAAAAeLEAAAwYMAAAAAAAHgB/AAAHgAQCAAADBzhngYywPPMFgCoAyVyVACCgCAlAiAI2KE4bNgINvLAtZmGcQhmxgHI6Qec2fOeyAACQAASAACQAASAACQAAQAACAAAAA==

> <PUBCHEM_IUPAC_OPENEYE_NAME>
3-(3-hydroxypropyl)-7-(isopropoxymethyl)-3,13-diazahexacyclo[14.7.0.02,10.04,9.011,15.017,22]tricosa-1(16),2(10),4(9),5,7,11(15),17,19,21-nonaen-14-one

> <PUBCHEM_IUPAC_CAS_NAME>
3-(3-hydroxypropyl)-7-(propan-2-yloxymethyl)-3,13-diazahexacyclo[14.7.0.02,10.04,9.011,15.017,22]tricosa-1(16),2(10),4(9),5,7,11(15),17,19,21-nonaen-14-one

> <PUBCHEM_IUPAC_NAME_MARKUP>
3-(3-hydroxypropyl)-7-(propan-2-yloxymethyl)-3,13-diazahexacyclo[14.7.0.0<SUP>2,10</SUP>.0<SUP>4,9</SUP>.0<SUP>11,15</SUP>.0<SUP>17,22</SUP>]tricosa-1(16),2(10),4(9),5,7,11(15),17,19,21-nonaen-14-one

> <PUBCHEM_IUPAC_NAME>
3-(3-hydroxypropyl)-7-(propan-2-yloxymethyl)-3,13-diazahexacyclo[14.7.0.02,10.04,9.011,15.017,22]tricosa-1(16),2(10),4(9),5,7,11(15),17,19,21-nonaen-14-one

> <PUBCHEM_IUPAC_SYSTEMATIC_NAME>
3-(3-oxidanylpropyl)-7-(propan-2-yloxymethyl)-3,13-diazahexacyclo[14.7.0.02,10.04,9.011,15.017,22]tricosa-1(16),2(10),4(9),5,7,11(15),17,19,21-nonaen-14-one

> <PUBCHEM_IUPAC_TRADITIONAL_NAME>
3-(3-hydroxypropyl)-7-(isopropoxymethyl)-3,13-diazahexacyclo[14.7.0.02,10.04,9.011,15.017,22]tricosa-1(16),2(10),4(9),5,7,11(15),17,19,21-nonaen-14-one

> <PUBCHEM_IUPAC_INCHI>
InChI=1S/C28H28N2O3/c1-16(2)33-15-17-8-9-23-20(12-17)25-22-14-29-28(32)26(22)24-19-7-4-3-6-18(19)13-21(24)27(25)30(23)10-5-11-31/h3-4,6-9,12,16,31H,5,10-11,13-15H2,1-2H3,(H,29,32)

> <PUBCHEM_IUPAC_INCHIKEY>
MLIFNJABMANKEU-UHFFFAOYSA-N

> <PUBCHEM_XLOGP3_AA>
3.9

> <PUBCHEM_EXACT_MASS>
440.20999276

> <PUBCHEM_MOLECULAR_FORMULA>
C28H28N2O3

> <PUBCHEM_MOLECULAR_WEIGHT>
440.5

> <PUBCHEM_SMILES>
CC(C)OCC1=CC2=C(C=C1)N(C3=C2C4=C(C5=C3CC6=CC=CC=C65)C(=O)NC4)CCCO

> <PUBCHEM_OPENEYE_CAN_SMILES>
CC(C)OCC1=CC2=C(C=C1)N(C3=C2C4=C(C5=C3CC6=CC=CC=C65)C(=O)NC4)CCCO

> <PUBCHEM_OPENEYE_ISO_SMILES>
CC(C)OCC1=CC2=C(C=C1)N(C3=C2C4=C(C5=C3CC6=CC=CC=C65)C(=O)NC4)CCCO

> <PUBCHEM_CACTVS_TPSA>
63.5

> <PUBCHEM_MONOISOTOPIC_WEIGHT>
440.20999276

> <PUBCHEM_TOTAL_CHARGE>
0

> <PUBCHEM_HEAVY_ATOM_COUNT>
33

> <PUBCHEM_ATOM_DEF_STEREO_COUNT>
0

> <PUBCHEM_ATOM_UDEF_STEREO_COUNT>
0

> <PUBCHEM_BOND_DEF_STEREO_COUNT>
0

> <PUBCHEM_BOND_UDEF_STEREO_COUNT>
0

> <PUBCHEM_ISOTOPIC_ATOM_COUNT>
0

> <PUBCHEM_COMPONENT_COUNT>
1

> <PUBCHEM_CACTVS_TAUTO_COUNT>
-1

> <PUBCHEM_COORDINATE_TYPE>
1
5
255

> <PUBCHEM_BONDANNOTATIONS>
10  11  8
13  14  8
13  20  8
14  21  8
15  16  8
15  23  8
16  24  8
20  25  8
21  26  8
23  27  8
24  28  8
25  26  8
27  28  8
4  14  8
4  6  8
6  7  8
6  8  8
7  9  8
8  10  8
8  13  8
9  11  8

$$$$
