49830536
  -OEChem-03202501522D

 52 55  0     0  0  0  0  0  0999 V2000
    4.5981    3.1565    0.0000 O   0  0  0  0  0  0  0  0  0  0  0  0
    2.8660    0.1565    0.0000 O   0  0  0  0  0  0  0  0  0  0  0  0
    2.8660    2.1565    0.0000 O   0  0  0  0  0  0  0  0  0  0  0  0
   11.1171   -3.4503    0.0000 O   0  0  0  0  0  0  0  0  0  0  0  0
    9.8744    0.3518    0.0000 N   0  0  0  0  0  0  0  0  0  0  0  0
    8.0622    0.1565    0.0000 N   0  0  0  0  0  0  0  0  0  0  0  0
    6.3301    0.1565    0.0000 N   0  0  0  0  0  0  0  0  0  0  0  0
    7.1962    1.6565    0.0000 N   0  0  0  0  0  0  0  0  0  0  0  0
    8.9282    0.6565    0.0000 C   0  0  0  0  0  0  0  0  0  0  0  0
    8.9282    1.6565    0.0000 C   0  0  0  0  0  0  0  0  0  0  0  0
   10.1851   -0.5987    0.0000 C   0  0  0  0  0  0  0  0  0  0  0  0
   10.4580    1.1565    0.0000 C   0  0  0  0  0  0  0  0  0  0  0  0
    9.8744    1.9612    0.0000 C   0  0  0  0  0  0  0  0  0  0  0  0
    7.1962    0.6565    0.0000 C   0  0  0  0  0  0  0  0  0  0  0  0
    8.0622    2.1565    0.0000 C   0  0  0  0  0  0  0  0  0  0  0  0
    5.4641    0.6565    0.0000 C   0  0  0  0  0  0  0  0  0  0  0  0
   11.1636   -0.8050    0.0000 C   0  0  0  0  0  0  0  0  0  0  0  0
    9.5172   -1.3430    0.0000 C   0  0  0  0  0  0  0  0  0  0  0  0
    4.5981    0.1565    0.0000 C   0  0  0  0  0  0  0  0  0  0  0  0
    5.4641    1.6565    0.0000 C   0  0  0  0  0  0  0  0  0  0  0  0
    4.5981    2.1565    0.0000 C   0  0  0  0  0  0  0  0  0  0  0  0
    3.7320    0.6565    0.0000 C   0  0  0  0  0  0  0  0  0  0  0  0
    3.7320    1.6565    0.0000 C   0  0  0  0  0  0  0  0  0  0  0  0
   11.4743   -1.7555    0.0000 C   0  0  0  0  0  0  0  0  0  0  0  0
    9.8279   -2.2936    0.0000 C   0  0  0  0  0  0  0  0  0  0  0  0
   10.8064   -2.4998    0.0000 C   0  0  0  0  0  0  0  0  0  0  0  0
    3.7320    3.6565    0.0000 C   0  0  0  0  0  0  0  0  0  0  0  0
    2.8660   -0.8435    0.0000 C   0  0  0  0  0  0  0  0  0  0  0  0
    2.0000    1.6565    0.0000 C   0  0  0  0  0  0  0  0  0  0  0  0
   12.0956   -3.6565    0.0000 C   0  0  0  0  0  0  0  0  0  0  0  0
   11.0780    1.1565    0.0000 H   0  0  0  0  0  0  0  0  0  0  0  0
   10.0670    2.5506    0.0000 H   0  0  0  0  0  0  0  0  0  0  0  0
    8.0622    2.7765    0.0000 H   0  0  0  0  0  0  0  0  0  0  0  0
   11.5777   -0.3435    0.0000 H   0  0  0  0  0  0  0  0  0  0  0  0
    8.9106   -1.2152    0.0000 H   0  0  0  0  0  0  0  0  0  0  0  0
    6.3301   -0.4635    0.0000 H   0  0  0  0  0  0  0  0  0  0  0  0
    4.5981   -0.4635    0.0000 H   0  0  0  0  0  0  0  0  0  0  0  0
    6.0010    1.9665    0.0000 H   0  0  0  0  0  0  0  0  0  0  0  0
   12.0809   -1.8833    0.0000 H   0  0  0  0  0  0  0  0  0  0  0  0
    9.4138   -2.7550    0.0000 H   0  0  0  0  0  0  0  0  0  0  0  0
    4.0420    4.1934    0.0000 H   0  0  0  0  0  0  0  0  0  0  0  0
    3.1951    3.9665    0.0000 H   0  0  0  0  0  0  0  0  0  0  0  0
    3.4220    3.1196    0.0000 H   0  0  0  0  0  0  0  0  0  0  0  0
    2.2460   -0.8435    0.0000 H   0  0  0  0  0  0  0  0  0  0  0  0
    2.8660   -1.4635    0.0000 H   0  0  0  0  0  0  0  0  0  0  0  0
    3.4860   -0.8435    0.0000 H   0  0  0  0  0  0  0  0  0  0  0  0
    1.6900    2.1934    0.0000 H   0  0  0  0  0  0  0  0  0  0  0  0
    1.4631    1.3465    0.0000 H   0  0  0  0  0  0  0  0  0  0  0  0
    2.3100    1.1196    0.0000 H   0  0  0  0  0  0  0  0  0  0  0  0
   11.9677   -4.2632    0.0000 H   0  0  0  0  0  0  0  0  0  0  0  0
   12.7023   -3.7844    0.0000 H   0  0  0  0  0  0  0  0  0  0  0  0
   12.2234   -3.0498    0.0000 H   0  0  0  0  0  0  0  0  0  0  0  0
  1 21  1  0  0  0  0
  1 27  1  0  0  0  0
  2 22  1  0  0  0  0
  2 28  1  0  0  0  0
  3 23  1  0  0  0  0
  3 29  1  0  0  0  0
  4 26  1  0  0  0  0
  4 30  1  0  0  0  0
  5  9  1  0  0  0  0
  5 11  1  0  0  0  0
  5 12  1  0  0  0  0
  6  9  2  0  0  0  0
  6 14  1  0  0  0  0
  7 14  1  0  0  0  0
  7 16  1  0  0  0  0
  7 36  1  0  0  0  0
  8 14  2  0  0  0  0
  8 15  1  0  0  0  0
  9 10  1  0  0  0  0
 10 13  1  0  0  0  0
 10 15  2  0  0  0  0
 11 17  2  0  0  0  0
 11 18  1  0  0  0  0
 12 13  2  0  0  0  0
 12 31  1  0  0  0  0
 13 32  1  0  0  0  0
 15 33  1  0  0  0  0
 16 19  2  0  0  0  0
 16 20  1  0  0  0  0
 17 24  1  0  0  0  0
 17 34  1  0  0  0  0
 18 25  2  0  0  0  0
 18 35  1  0  0  0  0
 19 22  1  0  0  0  0
 19 37  1  0  0  0  0
 20 21  2  0  0  0  0
 20 38  1  0  0  0  0
 21 23  1  0  0  0  0
 22 23  2  0  0  0  0
 24 26  2  0  0  0  0
 24 39  1  0  0  0  0
 25 26  1  0  0  0  0
 25 40  1  0  0  0  0
 27 41  1  0  0  0  0
 27 42  1  0  0  0  0
 27 43  1  0  0  0  0
 28 44  1  0  0  0  0
 28 45  1  0  0  0  0
 28 46  1  0  0  0  0
 29 47  1  0  0  0  0
 29 48  1  0  0  0  0
 29 49  1  0  0  0  0
 30 50  1  0  0  0  0
 30 51  1  0  0  0  0
 30 52  1  0  0  0  0
M  END
> <PUBCHEM_COMPOUND_CID>
49830536

> <PUBCHEM_COMPOUND_CANONICALIZED>
1

> <PUBCHEM_CACTVS_COMPLEXITY>
519

> <PUBCHEM_CACTVS_HBOND_ACCEPTOR>
7

> <PUBCHEM_CACTVS_HBOND_DONOR>
1

> <PUBCHEM_CACTVS_ROTATABLE_BOND>
7

> <PUBCHEM_CACTVS_SUBSKEYS>
AAADceB7uAAAAAAAAAAAAAAAAAAAAWAAAAA8YIAAAAAAAFgB/AAAHgAQAAAADAzBmwY/9t/MFACgAjZnZACCiCkxIqAJ2CA+7JiNL+LE+duENCpv0B/K6CewcA8IAEAACgAAQAAAgAAUAACAAAAAAAAAAA==

> <PUBCHEM_IUPAC_OPENEYE_NAME>
7-(4-methoxyphenyl)-N-(3,4,5-trimethoxyphenyl)pyrrolo[2,3-d]pyrimidin-2-amine

> <PUBCHEM_IUPAC_CAS_NAME>
7-(4-methoxyphenyl)-N-(3,4,5-trimethoxyphenyl)-2-pyrrolo[2,3-d]pyrimidinamine

> <PUBCHEM_IUPAC_NAME_MARKUP>
7-(4-methoxyphenyl)-<I>N</I>-(3,4,5-trimethoxyphenyl)pyrrolo[2,3-d]pyrimidin-2-amine

> <PUBCHEM_IUPAC_NAME>
7-(4-methoxyphenyl)-N-(3,4,5-trimethoxyphenyl)pyrrolo[2,3-d]pyrimidin-2-amine

> <PUBCHEM_IUPAC_SYSTEMATIC_NAME>
7-(4-methoxyphenyl)-N-(3,4,5-trimethoxyphenyl)pyrrolo[2,3-d]pyrimidin-2-amine

> <PUBCHEM_IUPAC_TRADITIONAL_NAME>
[7-(4-methoxyphenyl)pyrrolo[2,3-d]pyrimidin-2-yl]-(3,4,5-trimethoxyphenyl)amine

> <PUBCHEM_IUPAC_INCHI>
InChI=1S/C22H22N4O4/c1-27-17-7-5-16(6-8-17)26-10-9-14-13-23-22(25-21(14)26)24-15-11-18(28-2)20(30-4)19(12-15)29-3/h5-13H,1-4H3,(H,23,24,25)

> <PUBCHEM_IUPAC_INCHIKEY>
JNXJKTXDSPWNRP-UHFFFAOYSA-N

> <PUBCHEM_XLOGP3_AA>
4

> <PUBCHEM_EXACT_MASS>
406.16410520

> <PUBCHEM_MOLECULAR_FORMULA>
C22H22N4O4

> <PUBCHEM_MOLECULAR_WEIGHT>
406.4

> <PUBCHEM_SMILES>
COC1=CC=C(C=C1)N2C=CC3=CN=C(N=C32)NC4=CC(=C(C(=C4)OC)OC)OC

> <PUBCHEM_OPENEYE_CAN_SMILES>
COC1=CC=C(C=C1)N2C=CC3=CN=C(N=C32)NC4=CC(=C(C(=C4)OC)OC)OC

> <PUBCHEM_OPENEYE_ISO_SMILES>
COC1=CC=C(C=C1)N2C=CC3=CN=C(N=C32)NC4=CC(=C(C(=C4)OC)OC)OC

> <PUBCHEM_CACTVS_TPSA>
79.7

> <PUBCHEM_MONOISOTOPIC_WEIGHT>
406.16410520

> <PUBCHEM_TOTAL_CHARGE>
0

> <PUBCHEM_HEAVY_ATOM_COUNT>
30

> <PUBCHEM_ATOM_DEF_STEREO_COUNT>
0

> <PUBCHEM_ATOM_UDEF_STEREO_COUNT>
0

> <PUBCHEM_BOND_DEF_STEREO_COUNT>
0

> <PUBCHEM_BOND_UDEF_STEREO_COUNT>
0

> <PUBCHEM_ISOTOPIC_ATOM_COUNT>
0

> <PUBCHEM_COMPONENT_COUNT>
1

> <PUBCHEM_CACTVS_TAUTO_COUNT>
-1

> <PUBCHEM_COORDINATE_TYPE>
1
5
255

> <PUBCHEM_BONDANNOTATIONS>
10  13  8
10  15  8
11  17  8
11  18  8
12  13  8
16  19  8
16  20  8
17  24  8
18  25  8
19  22  8
20  21  8
21  23  8
22  23  8
24  26  8
25  26  8
5  12  8
5  9  8
6  14  8
6  9  8
8  14  8
8  15  8
9  10  8

$$$$
