9981346
  -OEChem-03202500182D

 53 60  0     1  0  0  0  0  0999 V2000
    7.5253    2.3172    0.0000 O   0  0  0  0  0  0  0  0  0  0  0  0
    9.2975   -1.1347    0.0000 O   0  0  0  0  0  0  0  0  0  0  0  0
   11.1246    0.0409    0.0000 O   0  0  0  0  0  0  0  0  0  0  0  0
   10.4201   -1.5414    0.0000 O   0  0  0  0  0  0  0  0  0  0  0  0
    2.2501    0.6180    0.0000 O   0  0  0  0  0  0  0  0  0  0  0  0
    6.9273   -0.6474    0.0000 N   0  0  0  0  0  0  0  0  0  0  0  0
    6.2433    1.2320    0.0000 N   0  0  0  0  0  0  0  0  0  0  0  0
    2.5826   -1.1645    0.0000 N   0  0  0  0  0  0  0  0  0  0  0  0
    8.0031    0.3687    0.0000 C   0  0  1  0  0  0  0  0  0  0  0  0
    9.4020   -0.1401    0.0000 C   0  0  2  0  0  0  0  0  0  0  0  0
    8.2619    1.3346    0.0000 C   0  0  2  0  0  0  0  0  0  0  0  0
    9.6609    0.8258    0.0000 C   0  0  0  0  0  0  0  0  0  0  0  0
    5.9425   -0.4737    0.0000 C   0  0  0  0  0  0  0  0  0  0  0  0
    5.6005    0.4660    0.0000 C   0  0  0  0  0  0  0  0  0  0  0  0
    5.2853   -1.2819    0.0000 C   0  0  0  0  0  0  0  0  0  0  0  0
    4.5776    0.6626    0.0000 C   0  0  0  0  0  0  0  0  0  0  0  0
    7.7443   -0.5972    0.0000 C   0  0  0  0  0  0  0  0  0  0  0  0
    6.9003   -1.6408    0.0000 C   0  0  0  0  0  0  0  0  0  0  0  0
    5.5840    1.9757    0.0000 C   0  0  0  0  0  0  0  0  0  0  0  0
    5.9733   -1.9990    0.0000 C   0  0  0  0  0  0  0  0  0  0  0  0
    4.2582   -1.1089    0.0000 C   0  0  0  0  0  0  0  0  0  0  0  0
    3.9019   -0.1301    0.0000 C   0  0  0  0  0  0  0  0  0  0  0  0
    4.6436    1.6543    0.0000 C   0  0  0  0  0  0  0  0  0  0  0  0
   10.3156   -0.5469    0.0000 C   0  0  0  0  0  0  0  0  0  0  0  0
    3.4406   -1.7443    0.0000 C   0  0  0  0  0  0  0  0  0  0  0  0
    7.7162   -2.2780    0.0000 C   0  0  0  0  0  0  0  0  0  0  0  0
    2.8672   -0.1689    0.0000 C   0  0  0  0  0  0  0  0  0  0  0  0
    5.7995    2.9882    0.0000 C   0  0  0  0  0  0  0  0  0  0  0  0
    5.7979   -3.0193    0.0000 C   0  0  0  0  0  0  0  0  0  0  0  0
    3.8535    2.3231    0.0000 C   0  0  0  0  0  0  0  0  0  0  0  0
    7.5644   -3.3020    0.0000 C   0  0  0  0  0  0  0  0  0  0  0  0
    6.5988   -3.6751    0.0000 C   0  0  0  0  0  0  0  0  0  0  0  0
    5.0250    3.6751    0.0000 C   0  0  0  0  0  0  0  0  0  0  0  0
    4.0454    3.3403    0.0000 C   0  0  0  0  0  0  0  0  0  0  0  0
    8.4819    2.1556    0.0000 H   0  0  0  0  0  0  0  0  0  0  0  0
   10.2548    0.6480    0.0000 H   0  0  0  0  0  0  0  0  0  0  0  0
    9.8558    1.4143    0.0000 H   0  0  0  0  0  0  0  0  0  0  0  0
    7.1454   -0.4368    0.0000 H   0  0  0  0  0  0  0  0  0  0  0  0
    7.5838   -1.1961    0.0000 H   0  0  0  0  0  0  0  0  0  0  0  0
    8.3432   -0.7577    0.0000 H   0  0  0  0  0  0  0  0  0  0  0  0
    8.7311   -1.3868    0.0000 H   0  0  0  0  0  0  0  0  0  0  0  0
    3.0413   -2.2187    0.0000 H   0  0  0  0  0  0  0  0  0  0  0  0
    3.8703   -2.1912    0.0000 H   0  0  0  0  0  0  0  0  0  0  0  0
    8.2919   -2.0478    0.0000 H   0  0  0  0  0  0  0  0  0  0  0  0
    6.3884    3.1820    0.0000 H   0  0  0  0  0  0  0  0  0  0  0  0
    5.2171   -3.2360    0.0000 H   0  0  0  0  0  0  0  0  0  0  0  0
    3.2692    2.1157    0.0000 H   0  0  0  0  0  0  0  0  0  0  0  0
    2.0000   -1.3766    0.0000 H   0  0  0  0  0  0  0  0  0  0  0  0
    8.0486   -3.6892    0.0000 H   0  0  0  0  0  0  0  0  0  0  0  0
    6.5009   -4.2873    0.0000 H   0  0  0  0  0  0  0  0  0  0  0  0
    5.1470    4.2830    0.0000 H   0  0  0  0  0  0  0  0  0  0  0  0
   11.6910   -0.2113    0.0000 H   0  0  0  0  0  0  0  0  0  0  0  0
    3.5769    3.7463    0.0000 H   0  0  0  0  0  0  0  0  0  0  0  0
  1  9  1  0  0  0  0
  1 11  1  0  0  0  0
 10  2  1  6  0  0  0
  2 41  1  0  0  0  0
  3 24  1  0  0  0  0
  3 52  1  0  0  0  0
  4 24  2  0  0  0  0
  5 27  2  0  0  0  0
  6  9  1  0  0  0  0
  6 13  1  0  0  0  0
  6 18  1  0  0  0  0
  7 11  1  0  0  0  0
  7 14  1  0  0  0  0
  7 19  1  0  0  0  0
  8 25  1  0  0  0  0
  8 27  1  0  0  0  0
  8 48  1  0  0  0  0
  9 10  1  0  0  0  0
  9 17  1  1  0  0  0
 10 12  1  0  0  0  0
 10 24  1  0  0  0  0
 11 12  1  0  0  0  0
 11 35  1  6  0  0  0
 12 36  1  0  0  0  0
 12 37  1  0  0  0  0
 13 14  2  0  0  0  0
 13 15  1  0  0  0  0
 14 16  1  0  0  0  0
 15 20  1  0  0  0  0
 15 21  2  0  0  0  0
 16 22  2  0  0  0  0
 16 23  1  0  0  0  0
 17 38  1  0  0  0  0
 17 39  1  0  0  0  0
 17 40  1  0  0  0  0
 18 20  1  0  0  0  0
 18 26  2  0  0  0  0
 19 23  1  0  0  0  0
 19 28  2  0  0  0  0
 20 29  2  0  0  0  0
 21 22  1  0  0  0  0
 21 25  1  0  0  0  0
 22 27  1  0  0  0  0
 23 30  2  0  0  0  0
 25 42  1  0  0  0  0
 25 43  1  0  0  0  0
 26 31  1  0  0  0  0
 26 44  1  0  0  0  0
 28 33  1  0  0  0  0
 28 45  1  0  0  0  0
 29 32  1  0  0  0  0
 29 46  1  0  0  0  0
 30 34  1  0  0  0  0
 30 47  1  0  0  0  0
 31 32  2  0  0  0  0
 31 49  1  0  0  0  0
 32 50  1  0  0  0  0
 33 34  2  0  0  0  0
 33 51  1  0  0  0  0
 34 53  1  0  0  0  0
M  END
> <PUBCHEM_COMPOUND_CID>
9981346

> <PUBCHEM_COMPOUND_CANONICALIZED>
1

> <PUBCHEM_CACTVS_COMPLEXITY>
961

> <PUBCHEM_CACTVS_HBOND_ACCEPTOR>
5

> <PUBCHEM_CACTVS_HBOND_DONOR>
3

> <PUBCHEM_CACTVS_ROTATABLE_BOND>
1

> <PUBCHEM_CACTVS_SUBSKEYS>
AAADceB7OAAAAAAAAAAAAAAAAAAAAWLFiQAwYMAABYAWAFix/gAAHgAQCAAADEzhngYyyPPMFgCoAyXyXAKCgCQlEiAI2KF4dNgLYP7AlZGeYQhnpgDbyQf+icCeyAACQAASACCQAASAACQAQAAAAAAAAA==

> <PUBCHEM_IUPAC_OPENEYE_NAME>
(15R,16S,18S)-16-hydroxy-15-methyl-3-oxo-28-oxa-4,14,19-triazaoctacyclo[12.11.2.115,18.02,6.07,27.08,13.019,26.020,25]octacosa-1,6,8,10,12,20,22,24,26-nonaene-16-carboxylic acid

> <PUBCHEM_IUPAC_CAS_NAME>
(15R,16S,18S)-16-hydroxy-15-methyl-3-oxo-28-oxa-4,14,19-triazaoctacyclo[12.11.2.115,18.02,6.07,27.08,13.019,26.020,25]octacosa-1,6,8,10,12,20,22,24,26-nonaene-16-carboxylic acid

> <PUBCHEM_IUPAC_NAME_MARKUP>
(15<I>R</I>,16<I>S</I>,18<I>S</I>)-16-hydroxy-15-methyl-3-oxo-28-oxa-4,14,19-triazaoctacyclo[12.11.2.1<SUP>15,18</SUP>.0<SUP>2,6</SUP>.0<SUP>7,27</SUP>.0<SUP>8,13</SUP>.0<SUP>19,26</SUP>.0<SUP>20,25</SUP>]octacosa-1,6,8,10,12,20,22,24,26-nonaene-16-carboxylic acid

> <PUBCHEM_IUPAC_NAME>
(15R,16S,18S)-16-hydroxy-15-methyl-3-oxo-28-oxa-4,14,19-triazaoctacyclo[12.11.2.115,18.02,6.07,27.08,13.019,26.020,25]octacosa-1,6,8,10,12,20,22,24,26-nonaene-16-carboxylic acid

> <PUBCHEM_IUPAC_SYSTEMATIC_NAME>
(15R,16S,18S)-15-methyl-16-oxidanyl-3-oxidanylidene-28-oxa-4,14,19-triazaoctacyclo[12.11.2.115,18.02,6.07,27.08,13.019,26.020,25]octacosa-1,6,8,10,12,20,22,24,26-nonaene-16-carboxylic acid

> <PUBCHEM_IUPAC_TRADITIONAL_NAME>
(15R,16S,18S)-16-hydroxy-3-keto-15-methyl-28-oxa-4,14,19-triazaoctacyclo[12.11.2.115,18.02,6.07,27.08,13.019,26.020,25]octacosa-1,6,8,10,12,20,22,24,26-nonaene-16-carboxylic acid

> <PUBCHEM_IUPAC_INCHI>
InChI=1S/C26H19N3O5/c1-25-26(33,24(31)32)10-17(34-25)28-15-8-4-2-6-12(15)19-20-14(11-27-23(20)30)18-13-7-3-5-9-16(13)29(25)22(18)21(19)28/h2-9,17,33H,10-11H2,1H3,(H,27,30)(H,31,32)/t17-,25+,26+/m0/s1

> <PUBCHEM_IUPAC_INCHIKEY>
AMSOPBXQXSAAAC-RBWOYHBQSA-N

> <PUBCHEM_XLOGP3_AA>
2.4

> <PUBCHEM_EXACT_MASS>
453.13247072

> <PUBCHEM_MOLECULAR_FORMULA>
C26H19N3O5

> <PUBCHEM_MOLECULAR_WEIGHT>
453.4

> <PUBCHEM_SMILES>
C[C@]12[C@@](C[C@H](O1)N3C4=CC=CC=C4C5=C6C(=C7C8=CC=CC=C8N2C7=C53)CNC6=O)(C(=O)O)O

> <PUBCHEM_OPENEYE_CAN_SMILES>
CC12C(CC(O1)N3C4=CC=CC=C4C5=C6C(=C7C8=CC=CC=C8N2C7=C53)CNC6=O)(C(=O)O)O

> <PUBCHEM_OPENEYE_ISO_SMILES>
C[C@]12[C@@](C[C@H](O1)N3C4=CC=CC=C4C5=C6C(=C7C8=CC=CC=C8N2C7=C53)CNC6=O)(C(=O)O)O

> <PUBCHEM_CACTVS_TPSA>
106

> <PUBCHEM_MONOISOTOPIC_WEIGHT>
453.13247072

> <PUBCHEM_TOTAL_CHARGE>
0

> <PUBCHEM_HEAVY_ATOM_COUNT>
34

> <PUBCHEM_ATOM_DEF_STEREO_COUNT>
3

> <PUBCHEM_ATOM_UDEF_STEREO_COUNT>
0

> <PUBCHEM_BOND_DEF_STEREO_COUNT>
0

> <PUBCHEM_BOND_UDEF_STEREO_COUNT>
0

> <PUBCHEM_ISOTOPIC_ATOM_COUNT>
0

> <PUBCHEM_COMPONENT_COUNT>
1

> <PUBCHEM_CACTVS_TAUTO_COUNT>
-1

> <PUBCHEM_COORDINATE_TYPE>
1
5
255

> <PUBCHEM_BONDANNOTATIONS>
11  35  6
13  14  8
13  15  8
14  16  8
15  20  8
15  21  8
16  22  8
16  23  8
18  20  8
18  26  8
19  23  8
19  28  8
10  2  6
20  29  8
21  22  8
23  30  8
26  31  8
28  33  8
29  32  8
30  34  8
31  32  8
33  34  8
6  13  8
6  18  8
7  14  8
7  19  8
9  17  5

$$$$
