49830856
  -OEChem-03202503532D

 51 56  0     0  0  0  0  0  0999 V2000
   10.6648    2.8825    0.0000 S   0  0  0  0  0  0  0  0  0  0  0  0
    2.5369    3.8825    0.0000 O   0  0  0  0  0  0  0  0  0  0  0  0
   15.5948   -3.6565    0.0000 O   0  0  0  0  0  0  0  0  0  0  0  0
    6.0812    3.6872    0.0000 N   0  0  0  0  0  0  0  0  0  0  0  0
   13.6536   -0.6847    0.0000 N   0  0  0  0  0  0  0  0  0  0  0  0
    6.0812    2.0777    0.0000 N   0  0  0  0  0  0  0  0  0  0  0  0
   12.2597   -1.4894    0.0000 N   0  0  0  0  0  0  0  0  0  0  0  0
    6.6648    2.8825    0.0000 C   0  0  0  0  0  0  0  0  0  0  0  0
   12.6648   -0.5816    0.0000 C   0  0  0  0  0  0  0  0  0  0  0  0
    5.1350    3.3825    0.0000 C   0  0  0  0  0  0  0  0  0  0  0  0
   13.8628   -1.6565    0.0000 C   0  0  0  0  0  0  0  0  0  0  0  0
    7.6648    2.8825    0.0000 C   0  0  0  0  0  0  0  0  0  0  0  0
   12.1648    0.2844    0.0000 C   0  0  0  0  0  0  0  0  0  0  0  0
    5.1350    2.3825    0.0000 C   0  0  0  0  0  0  0  0  0  0  0  0
   12.9967   -2.1565    0.0000 C   0  0  0  0  0  0  0  0  0  0  0  0
    4.2690    3.8825    0.0000 C   0  0  0  0  0  0  0  0  0  0  0  0
   14.7288   -2.1565    0.0000 C   0  0  0  0  0  0  0  0  0  0  0  0
    8.1648    3.7485    0.0000 C   0  0  0  0  0  0  0  0  0  0  0  0
   11.1648    0.2844    0.0000 C   0  0  0  0  0  0  0  0  0  0  0  0
    8.1648    2.0164    0.0000 C   0  0  0  0  0  0  0  0  0  0  0  0
   12.6648    1.1504    0.0000 C   0  0  0  0  0  0  0  0  0  0  0  0
    9.6648    2.8825    0.0000 C   0  0  0  0  0  0  0  0  0  0  0  0
   11.1648    2.0164    0.0000 C   0  0  0  0  0  0  0  0  0  0  0  0
    4.2690    1.8825    0.0000 C   0  0  0  0  0  0  0  0  0  0  0  0
   12.9967   -3.1565    0.0000 C   0  0  0  0  0  0  0  0  0  0  0  0
    9.1648    3.7485    0.0000 C   0  0  0  0  0  0  0  0  0  0  0  0
   10.6648    1.1504    0.0000 C   0  0  0  0  0  0  0  0  0  0  0  0
    9.1648    2.0164    0.0000 C   0  0  0  0  0  0  0  0  0  0  0  0
   12.1648    2.0164    0.0000 C   0  0  0  0  0  0  0  0  0  0  0  0
    3.4030    3.3825    0.0000 C   0  0  0  0  0  0  0  0  0  0  0  0
   14.7288   -3.1565    0.0000 C   0  0  0  0  0  0  0  0  0  0  0  0
    3.4030    2.3825    0.0000 C   0  0  0  0  0  0  0  0  0  0  0  0
   13.8628   -3.6565    0.0000 C   0  0  0  0  0  0  0  0  0  0  0  0
    6.2738    4.2765    0.0000 H   0  0  0  0  0  0  0  0  0  0  0  0
   14.0676   -0.2232    0.0000 H   0  0  0  0  0  0  0  0  0  0  0  0
    4.2690    4.5025    0.0000 H   0  0  0  0  0  0  0  0  0  0  0  0
   15.2657   -1.8465    0.0000 H   0  0  0  0  0  0  0  0  0  0  0  0
    7.8548    4.2854    0.0000 H   0  0  0  0  0  0  0  0  0  0  0  0
   10.8548   -0.2526    0.0000 H   0  0  0  0  0  0  0  0  0  0  0  0
    7.8548    1.4795    0.0000 H   0  0  0  0  0  0  0  0  0  0  0  0
   13.2848    1.1504    0.0000 H   0  0  0  0  0  0  0  0  0  0  0  0
    4.2690    1.2625    0.0000 H   0  0  0  0  0  0  0  0  0  0  0  0
   12.4598   -3.4665    0.0000 H   0  0  0  0  0  0  0  0  0  0  0  0
    9.4748    4.2854    0.0000 H   0  0  0  0  0  0  0  0  0  0  0  0
   10.0448    1.1504    0.0000 H   0  0  0  0  0  0  0  0  0  0  0  0
    9.4748    1.4795    0.0000 H   0  0  0  0  0  0  0  0  0  0  0  0
   12.4748    2.5534    0.0000 H   0  0  0  0  0  0  0  0  0  0  0  0
    2.8660    2.0725    0.0000 H   0  0  0  0  0  0  0  0  0  0  0  0
   13.8628   -4.2765    0.0000 H   0  0  0  0  0  0  0  0  0  0  0  0
    2.0000    3.5725    0.0000 H   0  0  0  0  0  0  0  0  0  0  0  0
   15.5948   -4.2765    0.0000 H   0  0  0  0  0  0  0  0  0  0  0  0
  1 22  1  0  0  0  0
  1 23  1  0  0  0  0
  2 30  1  0  0  0  0
  2 50  1  0  0  0  0
  3 31  1  0  0  0  0
  3 51  1  0  0  0  0
  4  8  1  0  0  0  0
  4 10  1  0  0  0  0
  4 34  1  0  0  0  0
  5  9  1  0  0  0  0
  5 11  1  0  0  0  0
  5 35  1  0  0  0  0
  6  8  2  0  0  0  0
  6 14  1  0  0  0  0
  7  9  2  0  0  0  0
  7 15  1  0  0  0  0
  8 12  1  0  0  0  0
  9 13  1  0  0  0  0
 10 14  2  0  0  0  0
 10 16  1  0  0  0  0
 11 15  2  0  0  0  0
 11 17  1  0  0  0  0
 12 18  2  0  0  0  0
 12 20  1  0  0  0  0
 13 19  2  0  0  0  0
 13 21  1  0  0  0  0
 14 24  1  0  0  0  0
 15 25  1  0  0  0  0
 16 30  2  0  0  0  0
 16 36  1  0  0  0  0
 17 31  2  0  0  0  0
 17 37  1  0  0  0  0
 18 26  1  0  0  0  0
 18 38  1  0  0  0  0
 19 27  1  0  0  0  0
 19 39  1  0  0  0  0
 20 28  2  0  0  0  0
 20 40  1  0  0  0  0
 21 29  2  0  0  0  0
 21 41  1  0  0  0  0
 22 26  2  0  0  0  0
 22 28  1  0  0  0  0
 23 27  2  0  0  0  0
 23 29  1  0  0  0  0
 24 32  2  0  0  0  0
 24 42  1  0  0  0  0
 25 33  2  0  0  0  0
 25 43  1  0  0  0  0
 26 44  1  0  0  0  0
 27 45  1  0  0  0  0
 28 46  1  0  0  0  0
 29 47  1  0  0  0  0
 30 32  1  0  0  0  0
 31 33  1  0  0  0  0
 32 48  1  0  0  0  0
 33 49  1  0  0  0  0
M  END
> <PUBCHEM_COMPOUND_CID>
49830856

> <PUBCHEM_COMPOUND_CANONICALIZED>
1

> <PUBCHEM_CACTVS_COMPLEXITY>
600

> <PUBCHEM_CACTVS_HBOND_ACCEPTOR>
5

> <PUBCHEM_CACTVS_HBOND_DONOR>
4

> <PUBCHEM_CACTVS_ROTATABLE_BOND>
4

> <PUBCHEM_CACTVS_SUBSKEYS>
AAADceB7sABAAAAAAAAAAAAAAAAAAWLAAAAwYMGAAAAAAFgB/gAAHgQQCAAADAyB3wAx17bJkgigAyZiZACCgC2hOrAJmTg2fJiIbqLimZOUcAhu0Bvo2Cew0AMOEEAAAgAAACAggAAEAAAAQAAAAAAAAA==

> <PUBCHEM_IUPAC_OPENEYE_NAME>
2-[4-[4-(6-hydroxy-1H-benzimidazol-2-yl)phenyl]sulfanylphenyl]-3H-benzimidazol-5-ol

> <PUBCHEM_IUPAC_CAS_NAME>
2-[4-[[4-(6-hydroxy-1H-benzimidazol-2-yl)phenyl]thio]phenyl]-3H-benzimidazol-5-ol

> <PUBCHEM_IUPAC_NAME_MARKUP>
2-[4-[4-(6-hydroxy-1<I>H</I>-benzimidazol-2-yl)phenyl]sulfanylphenyl]-3<I>H</I>-benzimidazol-5-ol

> <PUBCHEM_IUPAC_NAME>
2-[4-[4-(6-hydroxy-1H-benzimidazol-2-yl)phenyl]sulfanylphenyl]-3H-benzimidazol-5-ol

> <PUBCHEM_IUPAC_SYSTEMATIC_NAME>
2-[4-[4-(6-oxidanyl-1H-benzimidazol-2-yl)phenyl]sulfanylphenyl]-3H-benzimidazol-5-ol

> <PUBCHEM_IUPAC_TRADITIONAL_NAME>
2-[4-[[4-(6-hydroxy-1H-benzimidazol-2-yl)phenyl]thio]phenyl]-3H-benzimidazol-5-ol

> <PUBCHEM_IUPAC_INCHI>
InChI=1S/C26H18N4O2S/c31-17-5-11-21-23(13-17)29-25(27-21)15-1-7-19(8-2-15)33-20-9-3-16(4-10-20)26-28-22-12-6-18(32)14-24(22)30-26/h1-14,31-32H,(H,27,29)(H,28,30)

> <PUBCHEM_IUPAC_INCHIKEY>
RUPJOKGREQMQSI-UHFFFAOYSA-N

> <PUBCHEM_XLOGP3_AA>
5.7

> <PUBCHEM_EXACT_MASS>
450.11504700

> <PUBCHEM_MOLECULAR_FORMULA>
C26H18N4O2S

> <PUBCHEM_MOLECULAR_WEIGHT>
450.5

> <PUBCHEM_SMILES>
C1=CC(=CC=C1C2=NC3=C(N2)C=C(C=C3)O)SC4=CC=C(C=C4)C5=NC6=C(N5)C=C(C=C6)O

> <PUBCHEM_OPENEYE_CAN_SMILES>
C1=CC(=CC=C1C2=NC3=C(N2)C=C(C=C3)O)SC4=CC=C(C=C4)C5=NC6=C(N5)C=C(C=C6)O

> <PUBCHEM_OPENEYE_ISO_SMILES>
C1=CC(=CC=C1C2=NC3=C(N2)C=C(C=C3)O)SC4=CC=C(C=C4)C5=NC6=C(N5)C=C(C=C6)O

> <PUBCHEM_CACTVS_TPSA>
123

> <PUBCHEM_MONOISOTOPIC_WEIGHT>
450.11504700

> <PUBCHEM_TOTAL_CHARGE>
0

> <PUBCHEM_HEAVY_ATOM_COUNT>
33

> <PUBCHEM_ATOM_DEF_STEREO_COUNT>
0

> <PUBCHEM_ATOM_UDEF_STEREO_COUNT>
0

> <PUBCHEM_BOND_DEF_STEREO_COUNT>
0

> <PUBCHEM_BOND_UDEF_STEREO_COUNT>
0

> <PUBCHEM_ISOTOPIC_ATOM_COUNT>
0

> <PUBCHEM_COMPONENT_COUNT>
1

> <PUBCHEM_CACTVS_TAUTO_COUNT>
-1

> <PUBCHEM_COORDINATE_TYPE>
1
5
255

> <PUBCHEM_BONDANNOTATIONS>
10  14  8
10  16  8
11  15  8
11  17  8
12  18  8
12  20  8
13  19  8
13  21  8
14  24  8
15  25  8
16  30  8
17  31  8
18  26  8
19  27  8
20  28  8
21  29  8
22  26  8
22  28  8
23  27  8
23  29  8
24  32  8
25  33  8
30  32  8
31  33  8
4  10  8
4  8  8
5  11  8
5  9  8
6  14  8
6  8  8
7  15  8
7  9  8

$$$$
