44440261
  -OEChem-03202506052D

 59 63  0     0  0  0  0  0  0999 V2000
    8.7204   -2.1463    0.0000 S   0  0  0  0  0  0  0  0  0  0  0  0
    2.3405    0.4214    0.0000 O   0  0  0  0  0  0  0  0  0  0  0  0
    3.3005    3.2636    0.0000 O   0  0  0  0  0  0  0  0  0  0  0  0
    2.0000    2.1196    0.0000 O   0  0  0  0  0  0  0  0  0  0  0  0
   12.6237   -3.3620    0.0000 O   0  0  0  0  0  0  0  0  0  0  0  0
    5.1561   -4.3485    0.0000 N   0  0  0  0  0  0  0  0  0  0  0  0
    6.1502   -4.3476    0.0000 N   0  0  0  0  0  0  0  0  0  0  0  0
    3.9815   -0.1329    0.0000 N   0  0  0  0  0  0  0  0  0  0  0  0
    5.3464   -1.8650    0.0000 C   0  0  0  0  0  0  0  0  0  0  0  0
    5.6555   -2.8161    0.0000 C   0  0  0  0  0  0  0  0  0  0  0  0
    4.3464   -1.8650    0.0000 C   0  0  0  0  0  0  0  0  0  0  0  0
    4.8464   -3.4039    0.0000 C   0  0  0  0  0  0  0  0  0  0  0  0
    4.0374   -2.8161    0.0000 C   0  0  0  0  0  0  0  0  0  0  0  0
    6.4582   -3.4025    0.0000 C   0  0  0  0  0  0  0  0  0  0  0  0
    3.6615   -1.0803    0.0000 C   0  0  0  0  0  0  0  0  0  0  0  0
    3.0220   -3.0483    0.0000 C   0  0  0  0  0  0  0  0  0  0  0  0
    2.6410   -1.2890    0.0000 C   0  0  0  0  0  0  0  0  0  0  0  0
    7.4098   -3.0951    0.0000 C   0  0  0  0  0  0  0  0  0  0  0  0
    2.3191   -2.2796    0.0000 C   0  0  0  0  0  0  0  0  0  0  0  0
    8.2178   -3.6843    0.0000 C   0  0  0  0  0  0  0  0  0  0  0  0
    7.7204   -2.1446    0.0000 C   0  0  0  0  0  0  0  0  0  0  0  0
    3.3210    0.6180    0.0000 C   0  0  0  0  0  0  0  0  0  0  0  0
    9.0278   -3.0979    0.0000 C   0  0  0  0  0  0  0  0  0  0  0  0
    3.6410    1.5654    0.0000 C   0  0  0  0  0  0  0  0  0  0  0  0
    2.9805    2.3162    0.0000 C   0  0  0  0  0  0  0  0  0  0  0  0
    9.9783   -3.4086    0.0000 C   0  0  0  0  0  0  0  0  0  0  0  0
   10.9288   -3.7192    0.0000 C   0  0  0  0  0  0  0  0  0  0  0  0
    2.6400    4.0145    0.0000 C   0  0  0  0  0  0  0  0  0  0  0  0
   11.8794   -4.0299    0.0000 C   0  0  0  0  0  0  0  0  0  0  0  0
    2.9600    4.9619    0.0000 C   0  0  0  0  0  0  0  0  0  0  0  0
   13.5742   -3.6727    0.0000 C   0  0  0  0  0  0  0  0  0  0  0  0
   13.7804   -4.6512    0.0000 C   0  0  0  0  0  0  0  0  0  0  0  0
   14.3185   -3.0049    0.0000 C   0  0  0  0  0  0  0  0  0  0  0  0
   14.7309   -4.9619    0.0000 C   0  0  0  0  0  0  0  0  0  0  0  0
   15.2690   -3.3155    0.0000 C   0  0  0  0  0  0  0  0  0  0  0  0
   15.4752   -4.2940    0.0000 C   0  0  0  0  0  0  0  0  0  0  0  0
    5.9529   -1.7361    0.0000 H   0  0  0  0  0  0  0  0  0  0  0  0
    5.2816   -1.2484    0.0000 H   0  0  0  0  0  0  0  0  0  0  0  0
    4.7925   -4.8507    0.0000 H   0  0  0  0  0  0  0  0  0  0  0  0
    2.8373   -3.6402    0.0000 H   0  0  0  0  0  0  0  0  0  0  0  0
    2.2279   -0.8267    0.0000 H   0  0  0  0  0  0  0  0  0  0  0  0
    1.7131   -2.4109    0.0000 H   0  0  0  0  0  0  0  0  0  0  0  0
    4.5894   -0.0110    0.0000 H   0  0  0  0  0  0  0  0  0  0  0  0
    8.2167   -4.3043    0.0000 H   0  0  0  0  0  0  0  0  0  0  0  0
    7.3569   -1.6424    0.0000 H   0  0  0  0  0  0  0  0  0  0  0  0
    4.1850    1.2680    0.0000 H   0  0  0  0  0  0  0  0  0  0  0  0
    4.0283    2.0495    0.0000 H   0  0  0  0  0  0  0  0  0  0  0  0
    2.0960    4.3118    0.0000 H   0  0  0  0  0  0  0  0  0  0  0  0
    2.2526    3.5303    0.0000 H   0  0  0  0  0  0  0  0  0  0  0  0
   11.5873   -4.5768    0.0000 H   0  0  0  0  0  0  0  0  0  0  0  0
   12.3673   -4.4124    0.0000 H   0  0  0  0  0  0  0  0  0  0  0  0
    3.5474    4.7635    0.0000 H   0  0  0  0  0  0  0  0  0  0  0  0
    3.1584    5.5493    0.0000 H   0  0  0  0  0  0  0  0  0  0  0  0
    2.3726    5.1603    0.0000 H   0  0  0  0  0  0  0  0  0  0  0  0
   13.3189   -5.0653    0.0000 H   0  0  0  0  0  0  0  0  0  0  0  0
   14.1906   -2.3982    0.0000 H   0  0  0  0  0  0  0  0  0  0  0  0
   14.8588   -5.5686    0.0000 H   0  0  0  0  0  0  0  0  0  0  0  0
   15.7305   -2.9015    0.0000 H   0  0  0  0  0  0  0  0  0  0  0  0
   16.0645   -4.4866    0.0000 H   0  0  0  0  0  0  0  0  0  0  0  0
  1 21  1  0  0  0  0
  1 23  1  0  0  0  0
  2 22  2  0  0  0  0
  3 25  1  0  0  0  0
  3 28  1  0  0  0  0
  4 25  2  0  0  0  0
  5 29  1  0  0  0  0
  5 31  1  0  0  0  0
  6  7  1  0  0  0  0
  6 12  1  0  0  0  0
  6 39  1  0  0  0  0
  7 14  2  0  0  0  0
  8 15  1  0  0  0  0
  8 22  1  0  0  0  0
  8 43  1  0  0  0  0
  9 10  1  0  0  0  0
  9 11  1  0  0  0  0
  9 37  1  0  0  0  0
  9 38  1  0  0  0  0
 10 12  2  0  0  0  0
 10 14  1  0  0  0  0
 11 13  2  0  0  0  0
 11 15  1  0  0  0  0
 12 13  1  0  0  0  0
 13 16  1  0  0  0  0
 14 18  1  0  0  0  0
 15 17  2  0  0  0  0
 16 19  2  0  0  0  0
 16 40  1  0  0  0  0
 17 19  1  0  0  0  0
 17 41  1  0  0  0  0
 18 20  1  0  0  0  0
 18 21  2  0  0  0  0
 19 42  1  0  0  0  0
 20 23  2  0  0  0  0
 20 44  1  0  0  0  0
 21 45  1  0  0  0  0
 22 24  1  0  0  0  0
 23 26  1  0  0  0  0
 24 25  1  0  0  0  0
 24 46  1  0  0  0  0
 24 47  1  0  0  0  0
 26 27  3  0  0  0  0
 27 29  1  0  0  0  0
 28 30  1  0  0  0  0
 28 48  1  0  0  0  0
 28 49  1  0  0  0  0
 29 50  1  0  0  0  0
 29 51  1  0  0  0  0
 30 52  1  0  0  0  0
 30 53  1  0  0  0  0
 30 54  1  0  0  0  0
 31 32  2  0  0  0  0
 31 33  1  0  0  0  0
 32 34  1  0  0  0  0
 32 55  1  0  0  0  0
 33 35  2  0  0  0  0
 33 56  1  0  0  0  0
 34 36  2  0  0  0  0
 34 57  1  0  0  0  0
 35 36  1  0  0  0  0
 35 58  1  0  0  0  0
 36 59  1  0  0  0  0
M  END
> <PUBCHEM_COMPOUND_CID>
44440261

> <PUBCHEM_COMPOUND_CANONICALIZED>
1

> <PUBCHEM_CACTVS_COMPLEXITY>
850

> <PUBCHEM_CACTVS_HBOND_ACCEPTOR>
6

> <PUBCHEM_CACTVS_HBOND_DONOR>
2

> <PUBCHEM_CACTVS_ROTATABLE_BOND>
9

> <PUBCHEM_CACTVS_SUBSKEYS>
AAADceB7OABAAAAAAAAAAAAAAAAAAeJEAAAwYAAAAAAWAGAB9AAAHgQYAAAADAyl3gKyz5LjBAjuEyXyWAiTDIAhKhBYuTkmbJgMJq7s8duGvCjm/BHo6AeQwMAOgAAAQAASAAAAAACAACQAASAACQAAAA==

> <PUBCHEM_IUPAC_OPENEYE_NAME>
ethyl 3-oxo-3-[[3-[5-(3-phenoxyprop-1-ynyl)-3-thienyl]-1,4-dihydroindeno[1,2-c]pyrazol-5-yl]amino]propanoate

> <PUBCHEM_IUPAC_CAS_NAME>
3-oxo-3-[[3-[5-(3-phenoxyprop-1-ynyl)-3-thiophenyl]-1,4-dihydroindeno[1,2-c]pyrazol-5-yl]amino]propanoic acid ethyl ester

> <PUBCHEM_IUPAC_NAME_MARKUP>
ethyl 3-oxo-3-[[3-[5-(3-phenoxyprop-1-ynyl)thiophen-3-yl]-1,4-dihydroindeno[1,2-c]pyrazol-5-yl]amino]propanoate

> <PUBCHEM_IUPAC_NAME>
ethyl 3-oxo-3-[[3-[5-(3-phenoxyprop-1-ynyl)thiophen-3-yl]-1,4-dihydroindeno[1,2-c]pyrazol-5-yl]amino]propanoate

> <PUBCHEM_IUPAC_SYSTEMATIC_NAME>
ethyl 3-oxidanylidene-3-[[3-[5-(3-phenoxyprop-1-ynyl)thiophen-3-yl]-1,4-dihydroindeno[1,2-c]pyrazol-5-yl]amino]propanoate

> <PUBCHEM_IUPAC_TRADITIONAL_NAME>
3-keto-3-[[3-[5-(3-phenoxyprop-1-ynyl)-3-thienyl]-1,4-dihydroindeno[1,2-c]pyrazol-5-yl]amino]propionic acid ethyl ester

> <PUBCHEM_IUPAC_INCHI>
InChI=1S/C28H23N3O4S/c1-2-34-26(33)16-25(32)29-24-12-6-11-21-22(24)15-23-27(30-31-28(21)23)18-14-20(36-17-18)10-7-13-35-19-8-4-3-5-9-19/h3-6,8-9,11-12,14,17H,2,13,15-16H2,1H3,(H,29,32)(H,30,31)

> <PUBCHEM_IUPAC_INCHIKEY>
MKTIGUPWZDQDGK-UHFFFAOYSA-N

> <PUBCHEM_XLOGP3_AA>
5.2

> <PUBCHEM_EXACT_MASS>
497.14092740

> <PUBCHEM_MOLECULAR_FORMULA>
C28H23N3O4S

> <PUBCHEM_MOLECULAR_WEIGHT>
497.6

> <PUBCHEM_SMILES>
CCOC(=O)CC(=O)NC1=CC=CC2=C1CC3=C2NN=C3C4=CSC(=C4)C#CCOC5=CC=CC=C5

> <PUBCHEM_OPENEYE_CAN_SMILES>
CCOC(=O)CC(=O)NC1=CC=CC2=C1CC3=C2NN=C3C4=CSC(=C4)C#CCOC5=CC=CC=C5

> <PUBCHEM_OPENEYE_ISO_SMILES>
CCOC(=O)CC(=O)NC1=CC=CC2=C1CC3=C2NN=C3C4=CSC(=C4)C#CCOC5=CC=CC=C5

> <PUBCHEM_CACTVS_TPSA>
122

> <PUBCHEM_MONOISOTOPIC_WEIGHT>
497.14092740

> <PUBCHEM_TOTAL_CHARGE>
0

> <PUBCHEM_HEAVY_ATOM_COUNT>
36

> <PUBCHEM_ATOM_DEF_STEREO_COUNT>
0

> <PUBCHEM_ATOM_UDEF_STEREO_COUNT>
0

> <PUBCHEM_BOND_DEF_STEREO_COUNT>
0

> <PUBCHEM_BOND_UDEF_STEREO_COUNT>
0

> <PUBCHEM_ISOTOPIC_ATOM_COUNT>
0

> <PUBCHEM_COMPONENT_COUNT>
1

> <PUBCHEM_CACTVS_TAUTO_COUNT>
-1

> <PUBCHEM_COORDINATE_TYPE>
1
5
255

> <PUBCHEM_BONDANNOTATIONS>
1  21  8
1  23  8
10  12  8
10  14  8
11  13  8
11  15  8
13  16  8
15  17  8
16  19  8
17  19  8
18  20  8
18  21  8
20  23  8
31  32  8
31  33  8
32  34  8
33  35  8
34  36  8
35  36  8
6  12  8
6  7  8
7  14  8

$$$$
