246391
  -OEChem-03202501332D

 30 32  0     0  0  0  0  0  0999 V2000
    4.9889   -1.4984    0.0000 O   0  0  0  0  0  0  0  0  0  0  0  0
    4.9889    2.0121    0.0000 O   0  0  0  0  0  0  0  0  0  0  0  0
    8.2619   -1.4752    0.0000 O   0  0  0  0  0  0  0  0  0  0  0  0
    9.7619    1.1229    0.0000 O   0  0  0  0  0  0  0  0  0  0  0  0
    9.7619   -0.6092    0.0000 O   0  0  0  0  0  0  0  0  0  0  0  0
    5.2619    0.2569    0.0000 N   0  0  0  0  0  0  0  0  0  0  0  0
    3.7320   -0.2431    0.0000 C   0  0  0  0  0  0  0  0  0  0  0  0
    3.7320    0.7569    0.0000 C   0  0  0  0  0  0  0  0  0  0  0  0
    6.2619    0.2569    0.0000 C   0  0  0  0  0  0  0  0  0  0  0  0
    4.6783   -0.5479    0.0000 C   0  0  0  0  0  0  0  0  0  0  0  0
    4.6783    1.0616    0.0000 C   0  0  0  0  0  0  0  0  0  0  0  0
    2.8660   -0.7431    0.0000 C   0  0  0  0  0  0  0  0  0  0  0  0
    2.8660    1.2569    0.0000 C   0  0  0  0  0  0  0  0  0  0  0  0
    6.7619   -0.6092    0.0000 C   0  0  0  0  0  0  0  0  0  0  0  0
    6.7619    1.1229    0.0000 C   0  0  0  0  0  0  0  0  0  0  0  0
    7.7619   -0.6092    0.0000 C   0  0  0  0  0  0  0  0  0  0  0  0
    8.2619    0.2569    0.0000 C   0  0  0  0  0  0  0  0  0  0  0  0
    7.7619    1.1229    0.0000 C   0  0  0  0  0  0  0  0  0  0  0  0
    2.0000   -0.2431    0.0000 C   0  0  0  0  0  0  0  0  0  0  0  0
    2.0000    0.7569    0.0000 C   0  0  0  0  0  0  0  0  0  0  0  0
    9.2619    0.2569    0.0000 C   0  0  0  0  0  0  0  0  0  0  0  0
    2.8660   -1.3631    0.0000 H   0  0  0  0  0  0  0  0  0  0  0  0
    2.8660    1.8769    0.0000 H   0  0  0  0  0  0  0  0  0  0  0  0
    6.4519   -1.1461    0.0000 H   0  0  0  0  0  0  0  0  0  0  0  0
    6.4519    1.6598    0.0000 H   0  0  0  0  0  0  0  0  0  0  0  0
    8.0719    1.6598    0.0000 H   0  0  0  0  0  0  0  0  0  0  0  0
    1.4631   -0.5531    0.0000 H   0  0  0  0  0  0  0  0  0  0  0  0
    1.4631    1.0669    0.0000 H   0  0  0  0  0  0  0  0  0  0  0  0
    7.9519   -2.0121    0.0000 H   0  0  0  0  0  0  0  0  0  0  0  0
   10.3819    1.1229    0.0000 H   0  0  0  0  0  0  0  0  0  0  0  0
  1 10  2  0  0  0  0
  2 11  2  0  0  0  0
  3 16  1  0  0  0  0
  3 29  1  0  0  0  0
  4 21  1  0  0  0  0
  4 30  1  0  0  0  0
  5 21  2  0  0  0  0
  6  9  1  0  0  0  0
  6 10  1  0  0  0  0
  6 11  1  0  0  0  0
  7  8  1  0  0  0  0
  7 10  1  0  0  0  0
  7 12  2  0  0  0  0
  8 11  1  0  0  0  0
  8 13  2  0  0  0  0
  9 14  2  0  0  0  0
  9 15  1  0  0  0  0
 12 19  1  0  0  0  0
 12 22  1  0  0  0  0
 13 20  1  0  0  0  0
 13 23  1  0  0  0  0
 14 16  1  0  0  0  0
 14 24  1  0  0  0  0
 15 18  2  0  0  0  0
 15 25  1  0  0  0  0
 16 17  2  0  0  0  0
 17 18  1  0  0  0  0
 17 21  1  0  0  0  0
 18 26  1  0  0  0  0
 19 20  2  0  0  0  0
 19 27  1  0  0  0  0
 20 28  1  0  0  0  0
M  END
> <PUBCHEM_COMPOUND_CID>
246391

> <PUBCHEM_COMPOUND_CANONICALIZED>
1

> <PUBCHEM_CACTVS_COMPLEXITY>
453

> <PUBCHEM_CACTVS_HBOND_ACCEPTOR>
5

> <PUBCHEM_CACTVS_HBOND_DONOR>
2

> <PUBCHEM_CACTVS_ROTATABLE_BOND>
2

> <PUBCHEM_CACTVS_SUBSKEYS>
AAADccByOAAAAAAAAAAAAAAAAAAAAWAAAAAwYAAAAAAAAFgBQAAAHgAACAAADAyBmAAwzoMAAgCIAiXSWACCAAAlIgAIiAEGbMgIJzbClZOEcUhn5DnI2Yed2aOeiAAAAgAYAAAQAAAEADAAAAAAAAAAAA==

> <PUBCHEM_IUPAC_OPENEYE_NAME>
4-(1,3-dioxoisoindolin-2-yl)-2-hydroxy-benzoic acid

> <PUBCHEM_IUPAC_CAS_NAME>
4-(1,3-dioxo-2-isoindolyl)-2-hydroxybenzoic acid

> <PUBCHEM_IUPAC_NAME_MARKUP>
4-(1,3-dioxoisoindol-2-yl)-2-hydroxybenzoic acid

> <PUBCHEM_IUPAC_NAME>
4-(1,3-dioxoisoindol-2-yl)-2-hydroxybenzoic acid

> <PUBCHEM_IUPAC_SYSTEMATIC_NAME>
4-[1,3-bis(oxidanylidene)isoindol-2-yl]-2-oxidanyl-benzoic acid

> <PUBCHEM_IUPAC_TRADITIONAL_NAME>
2-hydroxy-4-phthalimido-benzoic acid

> <PUBCHEM_IUPAC_INCHI>
InChI=1S/C15H9NO5/c17-12-7-8(5-6-11(12)15(20)21)16-13(18)9-3-1-2-4-10(9)14(16)19/h1-7,17H,(H,20,21)

> <PUBCHEM_IUPAC_INCHIKEY>
JOSOUQLGXHXQDR-UHFFFAOYSA-N

> <PUBCHEM_XLOGP3>
2.1

> <PUBCHEM_EXACT_MASS>
283.04807239

> <PUBCHEM_MOLECULAR_FORMULA>
C15H9NO5

> <PUBCHEM_MOLECULAR_WEIGHT>
283.23

> <PUBCHEM_SMILES>
C1=CC=C2C(=C1)C(=O)N(C2=O)C3=CC(=C(C=C3)C(=O)O)O

> <PUBCHEM_OPENEYE_CAN_SMILES>
C1=CC=C2C(=C1)C(=O)N(C2=O)C3=CC(=C(C=C3)C(=O)O)O

> <PUBCHEM_OPENEYE_ISO_SMILES>
C1=CC=C2C(=C1)C(=O)N(C2=O)C3=CC(=C(C=C3)C(=O)O)O

> <PUBCHEM_CACTVS_TPSA>
94.9

> <PUBCHEM_MONOISOTOPIC_WEIGHT>
283.04807239

> <PUBCHEM_TOTAL_CHARGE>
0

> <PUBCHEM_HEAVY_ATOM_COUNT>
21

> <PUBCHEM_ATOM_DEF_STEREO_COUNT>
0

> <PUBCHEM_ATOM_UDEF_STEREO_COUNT>
0

> <PUBCHEM_BOND_DEF_STEREO_COUNT>
0

> <PUBCHEM_BOND_UDEF_STEREO_COUNT>
0

> <PUBCHEM_ISOTOPIC_ATOM_COUNT>
0

> <PUBCHEM_COMPONENT_COUNT>
1

> <PUBCHEM_CACTVS_TAUTO_COUNT>
-1

> <PUBCHEM_COORDINATE_TYPE>
1
5
255

> <PUBCHEM_BONDANNOTATIONS>
12  19  8
13  20  8
14  16  8
15  18  8
16  17  8
17  18  8
19  20  8
7  12  8
7  8  8
8  13  8
9  14  8
9  15  8

$$$$
