49830883
  -OEChem-03202504072D

 42 44  0     0  0  0  0  0  0999 V2000
    2.8660   -1.1526    0.0000 O   0  0  0  0  0  0  0  0  0  0  0  0
    3.7570    2.0545    0.0000 O   0  0  0  0  0  0  0  0  0  0  0  0
    5.4641    3.7616    0.0000 O   0  0  0  0  0  0  0  0  0  0  0  0
    4.5981   -4.1526    0.0000 O   0  0  0  0  0  0  0  0  0  0  0  0
    5.4641    0.3474    0.0000 N   0  0  0  0  0  0  0  0  0  0  0  0
    7.1712    2.0545    0.0000 N   0  0  0  0  0  0  0  0  0  0  0  0
    8.6712    4.6526    0.0000 N   0  0  0  0  0  0  0  0  0  0  0  0
    5.4641    1.3474    0.0000 C   0  0  0  0  0  0  0  0  0  0  0  0
    4.5981   -0.1526    0.0000 C   0  0  0  0  0  0  0  0  0  0  0  0
    6.1712    2.0545    0.0000 C   0  0  0  0  0  0  0  0  0  0  0  0
    4.5981   -1.1526    0.0000 C   0  0  0  0  0  0  0  0  0  0  0  0
    4.7570    2.0545    0.0000 C   0  0  0  0  0  0  0  0  0  0  0  0
    5.4641    2.7616    0.0000 C   0  0  0  0  0  0  0  0  0  0  0  0
    3.7320   -1.6526    0.0000 C   0  0  0  0  0  0  0  0  0  0  0  0
    5.4641   -1.6526    0.0000 C   0  0  0  0  0  0  0  0  0  0  0  0
    3.7320   -2.6526    0.0000 C   0  0  0  0  0  0  0  0  0  0  0  0
    7.6712    2.9205    0.0000 C   0  0  0  0  0  0  0  0  0  0  0  0
    5.4641   -2.6526    0.0000 C   0  0  0  0  0  0  0  0  0  0  0  0
    4.5981   -3.1526    0.0000 C   0  0  0  0  0  0  0  0  0  0  0  0
    7.1712    3.7866    0.0000 C   0  0  0  0  0  0  0  0  0  0  0  0
    8.6712    2.9205    0.0000 C   0  0  0  0  0  0  0  0  0  0  0  0
    2.0000   -1.6526    0.0000 C   0  0  0  0  0  0  0  0  0  0  0  0
    7.6712    4.6526    0.0000 C   0  0  0  0  0  0  0  0  0  0  0  0
    9.1712    3.7866    0.0000 C   0  0  0  0  0  0  0  0  0  0  0  0
    5.4641   -4.6526    0.0000 C   0  0  0  0  0  0  0  0  0  0  0  0
    4.3860    0.4300    0.0000 H   0  0  0  0  0  0  0  0  0  0  0  0
    3.9875   -0.2603    0.0000 H   0  0  0  0  0  0  0  0  0  0  0  0
    6.0010    0.0374    0.0000 H   0  0  0  0  0  0  0  0  0  0  0  0
    7.4812    1.5176    0.0000 H   0  0  0  0  0  0  0  0  0  0  0  0
    6.0010   -1.3426    0.0000 H   0  0  0  0  0  0  0  0  0  0  0  0
    3.1951   -2.9626    0.0000 H   0  0  0  0  0  0  0  0  0  0  0  0
    6.0010   -2.9626    0.0000 H   0  0  0  0  0  0  0  0  0  0  0  0
    6.5512    3.7866    0.0000 H   0  0  0  0  0  0  0  0  0  0  0  0
    8.9812    2.3836    0.0000 H   0  0  0  0  0  0  0  0  0  0  0  0
    1.6900   -1.1157    0.0000 H   0  0  0  0  0  0  0  0  0  0  0  0
    1.4631   -1.9626    0.0000 H   0  0  0  0  0  0  0  0  0  0  0  0
    2.3100   -2.1895    0.0000 H   0  0  0  0  0  0  0  0  0  0  0  0
    7.3612    5.1895    0.0000 H   0  0  0  0  0  0  0  0  0  0  0  0
    9.7912    3.7866    0.0000 H   0  0  0  0  0  0  0  0  0  0  0  0
    5.1541   -5.1895    0.0000 H   0  0  0  0  0  0  0  0  0  0  0  0
    6.0010   -4.9626    0.0000 H   0  0  0  0  0  0  0  0  0  0  0  0
    5.7741   -4.1157    0.0000 H   0  0  0  0  0  0  0  0  0  0  0  0
  1 14  1  0  0  0  0
  1 22  1  0  0  0  0
  2 12  2  0  0  0  0
  3 13  2  0  0  0  0
  4 19  1  0  0  0  0
  4 25  1  0  0  0  0
  5  8  1  0  0  0  0
  5  9  1  0  0  0  0
  5 28  1  0  0  0  0
  6 10  1  0  0  0  0
  6 17  1  0  0  0  0
  6 29  1  0  0  0  0
  7 23  2  0  0  0  0
  7 24  1  0  0  0  0
  8 10  2  0  0  0  0
  8 12  1  0  0  0  0
  9 11  1  0  0  0  0
  9 26  1  0  0  0  0
  9 27  1  0  0  0  0
 10 13  1  0  0  0  0
 11 14  2  0  0  0  0
 11 15  1  0  0  0  0
 12 13  1  0  0  0  0
 14 16  1  0  0  0  0
 15 18  2  0  0  0  0
 15 30  1  0  0  0  0
 16 19  2  0  0  0  0
 16 31  1  0  0  0  0
 17 20  2  0  0  0  0
 17 21  1  0  0  0  0
 18 19  1  0  0  0  0
 18 32  1  0  0  0  0
 20 23  1  0  0  0  0
 20 33  1  0  0  0  0
 21 24  2  0  0  0  0
 21 34  1  0  0  0  0
 22 35  1  0  0  0  0
 22 36  1  0  0  0  0
 22 37  1  0  0  0  0
 23 38  1  0  0  0  0
 24 39  1  0  0  0  0
 25 40  1  0  0  0  0
 25 41  1  0  0  0  0
 25 42  1  0  0  0  0
M  END
> <PUBCHEM_COMPOUND_CID>
49830883

> <PUBCHEM_COMPOUND_CANONICALIZED>
1

> <PUBCHEM_CACTVS_COMPLEXITY>
542

> <PUBCHEM_CACTVS_HBOND_ACCEPTOR>
7

> <PUBCHEM_CACTVS_HBOND_DONOR>
2

> <PUBCHEM_CACTVS_ROTATABLE_BOND>
7

> <PUBCHEM_CACTVS_SUBSKEYS>
AAADceB7OAAAAAAAAAAAAAAAAABAAAAAAAA8QAAAAAAAAAABwAAAHgAQAAAADAzBmgY+xpLIFACoArR3RACCiCAxIiAI2KG+bNgMJ2rE8fuENChn0BXI6UeQ8C4OIAAACAAIAABAAAAQABAAAAAAAAAAAA==

> <PUBCHEM_IUPAC_OPENEYE_NAME>
3-[(2,4-dimethoxyphenyl)methylamino]-4-(4-pyridylamino)cyclobut-3-ene-1,2-dione

> <PUBCHEM_IUPAC_CAS_NAME>
3-[(2,4-dimethoxyphenyl)methylamino]-4-(pyridin-4-ylamino)cyclobut-3-ene-1,2-dione

> <PUBCHEM_IUPAC_NAME_MARKUP>
3-[(2,4-dimethoxyphenyl)methylamino]-4-(pyridin-4-ylamino)cyclobut-3-ene-1,2-dione

> <PUBCHEM_IUPAC_NAME>
3-[(2,4-dimethoxyphenyl)methylamino]-4-(pyridin-4-ylamino)cyclobut-3-ene-1,2-dione

> <PUBCHEM_IUPAC_SYSTEMATIC_NAME>
3-[(2,4-dimethoxyphenyl)methylamino]-4-(pyridin-4-ylamino)cyclobut-3-ene-1,2-dione

> <PUBCHEM_IUPAC_TRADITIONAL_NAME>
3-[(2,4-dimethoxybenzyl)amino]-4-(4-pyridylamino)cyclobut-3-ene-1,2-quinone

> <PUBCHEM_IUPAC_INCHI>
InChI=1S/C18H17N3O4/c1-24-13-4-3-11(14(9-13)25-2)10-20-15-16(18(23)17(15)22)21-12-5-7-19-8-6-12/h3-9,20H,10H2,1-2H3,(H,19,21)

> <PUBCHEM_IUPAC_INCHIKEY>
QUZYEJUYJAWLOF-UHFFFAOYSA-N

> <PUBCHEM_XLOGP3_AA>
1.9

> <PUBCHEM_EXACT_MASS>
339.12190603

> <PUBCHEM_MOLECULAR_FORMULA>
C18H17N3O4

> <PUBCHEM_MOLECULAR_WEIGHT>
339.3

> <PUBCHEM_SMILES>
COC1=CC(=C(C=C1)CNC2=C(C(=O)C2=O)NC3=CC=NC=C3)OC

> <PUBCHEM_OPENEYE_CAN_SMILES>
COC1=CC(=C(C=C1)CNC2=C(C(=O)C2=O)NC3=CC=NC=C3)OC

> <PUBCHEM_OPENEYE_ISO_SMILES>
COC1=CC(=C(C=C1)CNC2=C(C(=O)C2=O)NC3=CC=NC=C3)OC

> <PUBCHEM_CACTVS_TPSA>
89.6

> <PUBCHEM_MONOISOTOPIC_WEIGHT>
339.12190603

> <PUBCHEM_TOTAL_CHARGE>
0

> <PUBCHEM_HEAVY_ATOM_COUNT>
25

> <PUBCHEM_ATOM_DEF_STEREO_COUNT>
0

> <PUBCHEM_ATOM_UDEF_STEREO_COUNT>
0

> <PUBCHEM_BOND_DEF_STEREO_COUNT>
0

> <PUBCHEM_BOND_UDEF_STEREO_COUNT>
0

> <PUBCHEM_ISOTOPIC_ATOM_COUNT>
0

> <PUBCHEM_COMPONENT_COUNT>
1

> <PUBCHEM_CACTVS_TAUTO_COUNT>
-1

> <PUBCHEM_COORDINATE_TYPE>
1
5
255

> <PUBCHEM_BONDANNOTATIONS>
10  13  8
11  14  8
11  15  8
12  13  8
14  16  8
15  18  8
16  19  8
17  20  8
17  21  8
18  19  8
20  23  8
21  24  8
7  23  8
7  24  8
8  10  8
8  12  8

$$$$
