24905240
  -OEChem-03192523452D

 36 38  0     0  0  0  0  0  0999 V2000
    7.2566    1.5893    0.0000 O   0  0  0  0  0  0  0  0  0  0  0  0
    4.6783   -2.3336    0.0000 N   0  0  0  0  0  0  0  0  0  0  0  0
    5.2619   -1.5289    0.0000 N   0  0  0  0  0  0  0  0  0  0  0  0
    2.8660   -2.5289    0.0000 N   0  0  0  0  0  0  0  0  0  0  0  0
    2.0000   -1.0289    0.0000 N   0  0  0  0  0  0  0  0  0  0  0  0
    2.8660    0.4711    0.0000 N   0  0  0  0  0  0  0  0  0  0  0  0
    6.2316    4.0284    0.0000 N   0  0  0  0  0  0  0  0  0  0  0  0
    4.9889   -3.2841    0.0000 C   0  0  0  0  0  0  0  0  0  0  0  0
    3.7320   -2.0289    0.0000 C   0  0  0  0  0  0  0  0  0  0  0  0
    3.7320   -1.0289    0.0000 C   0  0  0  0  0  0  0  0  0  0  0  0
    4.6783   -0.7242    0.0000 C   0  0  0  0  0  0  0  0  0  0  0  0
    5.9674   -3.4904    0.0000 C   0  0  0  0  0  0  0  0  0  0  0  0
    4.3211   -4.0284    0.0000 C   0  0  0  0  0  0  0  0  0  0  0  0
    4.9889    0.2264    0.0000 C   0  0  0  0  0  0  0  0  0  0  0  0
    2.8660   -0.5289    0.0000 C   0  0  0  0  0  0  0  0  0  0  0  0
    5.9674    0.4326    0.0000 C   0  0  0  0  0  0  0  0  0  0  0  0
    4.3211    0.9707    0.0000 C   0  0  0  0  0  0  0  0  0  0  0  0
    2.0000   -2.0289    0.0000 C   0  0  0  0  0  0  0  0  0  0  0  0
    6.2781    1.3831    0.0000 C   0  0  0  0  0  0  0  0  0  0  0  0
    4.6318    1.9212    0.0000 C   0  0  0  0  0  0  0  0  0  0  0  0
    5.6103    2.1274    0.0000 C   0  0  0  0  0  0  0  0  0  0  0  0
    5.9209    3.0779    0.0000 C   0  0  0  0  0  0  0  0  0  0  0  0
    5.4030   -2.8227    0.0000 H   0  0  0  0  0  0  0  0  0  0  0  0
    5.8396   -4.0970    0.0000 H   0  0  0  0  0  0  0  0  0  0  0  0
    6.5741   -3.6182    0.0000 H   0  0  0  0  0  0  0  0  0  0  0  0
    6.0953   -2.8837    0.0000 H   0  0  0  0  0  0  0  0  0  0  0  0
    3.8596   -3.6144    0.0000 H   0  0  0  0  0  0  0  0  0  0  0  0
    3.9070   -4.4899    0.0000 H   0  0  0  0  0  0  0  0  0  0  0  0
    4.7826   -4.4425    0.0000 H   0  0  0  0  0  0  0  0  0  0  0  0
    6.3815   -0.0289    0.0000 H   0  0  0  0  0  0  0  0  0  0  0  0
    3.7144    0.8428    0.0000 H   0  0  0  0  0  0  0  0  0  0  0  0
    1.4631   -2.3389    0.0000 H   0  0  0  0  0  0  0  0  0  0  0  0
    4.2177    2.3826    0.0000 H   0  0  0  0  0  0  0  0  0  0  0  0
    2.3291    0.7811    0.0000 H   0  0  0  0  0  0  0  0  0  0  0  0
    3.4030    0.7811    0.0000 H   0  0  0  0  0  0  0  0  0  0  0  0
    7.6707    1.1278    0.0000 H   0  0  0  0  0  0  0  0  0  0  0  0
  1 19  1  0  0  0  0
  1 36  1  0  0  0  0
  2  3  1  0  0  0  0
  2  8  1  0  0  0  0
  2  9  1  0  0  0  0
  3 11  2  0  0  0  0
  4  9  2  0  0  0  0
  4 18  1  0  0  0  0
  5 15  1  0  0  0  0
  5 18  2  0  0  0  0
  6 15  1  0  0  0  0
  6 34  1  0  0  0  0
  6 35  1  0  0  0  0
  7 22  3  0  0  0  0
  8 12  1  0  0  0  0
  8 13  1  0  0  0  0
  8 23  1  0  0  0  0
  9 10  1  0  0  0  0
 10 11  1  0  0  0  0
 10 15  2  0  0  0  0
 11 14  1  0  0  0  0
 12 24  1  0  0  0  0
 12 25  1  0  0  0  0
 12 26  1  0  0  0  0
 13 27  1  0  0  0  0
 13 28  1  0  0  0  0
 13 29  1  0  0  0  0
 14 16  2  0  0  0  0
 14 17  1  0  0  0  0
 16 19  1  0  0  0  0
 16 30  1  0  0  0  0
 17 20  2  0  0  0  0
 17 31  1  0  0  0  0
 18 32  1  0  0  0  0
 19 21  2  0  0  0  0
 20 21  1  0  0  0  0
 20 33  1  0  0  0  0
 21 22  1  0  0  0  0
M  END
> <PUBCHEM_COMPOUND_CID>
24905240

> <PUBCHEM_COMPOUND_CANONICALIZED>
1

> <PUBCHEM_CACTVS_COMPLEXITY>
449

> <PUBCHEM_CACTVS_HBOND_ACCEPTOR>
6

> <PUBCHEM_CACTVS_HBOND_DONOR>
2

> <PUBCHEM_CACTVS_ROTATABLE_BOND>
2

> <PUBCHEM_CACTVS_SUBSKEYS>
AAADccBzoAAAAAAAAAAAAAAAAAAAAWAAAAA8QAAAAAAAAFgB/AAAHgAYCAAADCzBnwQ3tt5IEgCyByZjZACyhCsxoKAd2CAuTJiIrqLC2dOE9AhsyBPI2C+wwPAOQAABAAAIAACAAAIAABAAAAAAAAAAAA==

> <PUBCHEM_IUPAC_OPENEYE_NAME>
4-(4-amino-1-isopropyl-pyrazolo[3,4-d]pyrimidin-3-yl)-2-hydroxy-benzonitrile

> <PUBCHEM_IUPAC_CAS_NAME>
4-(4-amino-1-propan-2-yl-3-pyrazolo[3,4-d]pyrimidinyl)-2-hydroxybenzonitrile

> <PUBCHEM_IUPAC_NAME_MARKUP>
4-(4-amino-1-propan-2-ylpyrazolo[3,4-d]pyrimidin-3-yl)-2-hydroxybenzonitrile

> <PUBCHEM_IUPAC_NAME>
4-(4-amino-1-propan-2-ylpyrazolo[3,4-d]pyrimidin-3-yl)-2-hydroxybenzonitrile

> <PUBCHEM_IUPAC_SYSTEMATIC_NAME>
4-(4-azanyl-1-propan-2-yl-pyrazolo[3,4-d]pyrimidin-3-yl)-2-oxidanyl-benzenecarbonitrile

> <PUBCHEM_IUPAC_TRADITIONAL_NAME>
4-(4-amino-1-isopropyl-pyrazolo[3,4-d]pyrimidin-3-yl)-2-hydroxy-benzonitrile

> <PUBCHEM_IUPAC_INCHI>
InChI=1S/C15H14N6O/c1-8(2)21-15-12(14(17)18-7-19-15)13(20-21)9-3-4-10(6-16)11(22)5-9/h3-5,7-8,22H,1-2H3,(H2,17,18,19)

> <PUBCHEM_IUPAC_INCHIKEY>
DHYADLCEAXMYPS-UHFFFAOYSA-N

> <PUBCHEM_XLOGP3_AA>
2.1

> <PUBCHEM_EXACT_MASS>
294.12290909

> <PUBCHEM_MOLECULAR_FORMULA>
C15H14N6O

> <PUBCHEM_MOLECULAR_WEIGHT>
294.31

> <PUBCHEM_SMILES>
CC(C)N1C2=NC=NC(=C2C(=N1)C3=CC(=C(C=C3)C#N)O)N

> <PUBCHEM_OPENEYE_CAN_SMILES>
CC(C)N1C2=NC=NC(=C2C(=N1)C3=CC(=C(C=C3)C#N)O)N

> <PUBCHEM_OPENEYE_ISO_SMILES>
CC(C)N1C2=NC=NC(=C2C(=N1)C3=CC(=C(C=C3)C#N)O)N

> <PUBCHEM_CACTVS_TPSA>
114

> <PUBCHEM_MONOISOTOPIC_WEIGHT>
294.12290909

> <PUBCHEM_TOTAL_CHARGE>
0

> <PUBCHEM_HEAVY_ATOM_COUNT>
22

> <PUBCHEM_ATOM_DEF_STEREO_COUNT>
0

> <PUBCHEM_ATOM_UDEF_STEREO_COUNT>
0

> <PUBCHEM_BOND_DEF_STEREO_COUNT>
0

> <PUBCHEM_BOND_UDEF_STEREO_COUNT>
0

> <PUBCHEM_ISOTOPIC_ATOM_COUNT>
0

> <PUBCHEM_COMPONENT_COUNT>
1

> <PUBCHEM_CACTVS_TAUTO_COUNT>
-1

> <PUBCHEM_COORDINATE_TYPE>
1
5
255

> <PUBCHEM_BONDANNOTATIONS>
10  11  8
10  15  8
14  16  8
14  17  8
16  19  8
17  20  8
19  21  8
2  3  8
2  9  8
20  21  8
3  11  8
4  18  8
4  9  8
5  15  8
5  18  8
9  10  8

$$$$
