417428
  -OEChem-03202510432D

 14 15  0     0  0  0  0  0  0999 V2000
    2.0000    1.0000    0.0000 Cl  0  0  0  0  0  0  0  0  0  0  0  0
    2.0000   -1.0000    0.0000 Cl  0  0  0  0  0  0  0  0  0  0  0  0
    5.5443    0.8047    0.0000 N   0  0  0  0  0  0  0  0  0  0  0  0
    5.5443   -0.8047    0.0000 N   0  0  0  0  0  0  0  0  0  0  0  0
    6.1279    0.0000    0.0000 N   0  0  0  0  0  0  0  0  0  0  0  0
    4.5981    0.5000    0.0000 C   0  0  0  0  0  0  0  0  0  0  0  0
    4.5981   -0.5000    0.0000 C   0  0  0  0  0  0  0  0  0  0  0  0
    3.7320    1.0000    0.0000 C   0  0  0  0  0  0  0  0  0  0  0  0
    3.7320   -1.0000    0.0000 C   0  0  0  0  0  0  0  0  0  0  0  0
    2.8660    0.5000    0.0000 C   0  0  0  0  0  0  0  0  0  0  0  0
    2.8660   -0.5000    0.0000 C   0  0  0  0  0  0  0  0  0  0  0  0
    3.7320    1.6200    0.0000 H   0  0  0  0  0  0  0  0  0  0  0  0
    3.7320   -1.6200    0.0000 H   0  0  0  0  0  0  0  0  0  0  0  0
    6.7479    0.0000    0.0000 H   0  0  0  0  0  0  0  0  0  0  0  0
  1 10  1  0  0  0  0
  2 11  1  0  0  0  0
  3  5  1  0  0  0  0
  3  6  2  0  0  0  0
  4  5  1  0  0  0  0
  4  7  2  0  0  0  0
  5 14  1  0  0  0  0
  6  7  1  0  0  0  0
  6  8  1  0  0  0  0
  7  9  1  0  0  0  0
  8 10  2  0  0  0  0
  8 12  1  0  0  0  0
  9 11  2  0  0  0  0
  9 13  1  0  0  0  0
 10 11  1  0  0  0  0
M  END
> <PUBCHEM_COMPOUND_CID>
417428

> <PUBCHEM_COMPOUND_CANONICALIZED>
1

> <PUBCHEM_CACTVS_COMPLEXITY>
139

> <PUBCHEM_CACTVS_HBOND_ACCEPTOR>
2

> <PUBCHEM_CACTVS_HBOND_DONOR>
1

> <PUBCHEM_CACTVS_ROTATABLE_BOND>
0

> <PUBCHEM_CACTVS_SUBSKEYS>
AAADcQBjAAAGAAAAAAAAAAAAAAAAAWAAAAAwAAAAAAAAAFgB8AAAHAIYAAAACAqBFiAwwLACAACiASRiQACCBAQgFwAQumAwdpgIYKKBkpGAIABggAAIyAcQAAAAAABAAAIAACQAAIAABAAASAAAAAAAAA==

> <PUBCHEM_IUPAC_OPENEYE_NAME>
5,6-dichloro-2H-benzotriazole

> <PUBCHEM_IUPAC_CAS_NAME>
5,6-dichloro-2H-benzotriazole

> <PUBCHEM_IUPAC_NAME_MARKUP>
5,6-dichloro-2<I>H</I>-benzotriazole

> <PUBCHEM_IUPAC_NAME>
5,6-dichloro-2H-benzotriazole

> <PUBCHEM_IUPAC_SYSTEMATIC_NAME>
5,6-bis(chloranyl)-2H-benzotriazole

> <PUBCHEM_IUPAC_TRADITIONAL_NAME>
5,6-dichloro-2H-benzotriazole

> <PUBCHEM_IUPAC_INCHI>
InChI=1S/C6H3Cl2N3/c7-3-1-5-6(2-4(3)8)10-11-9-5/h1-2H,(H,9,10,11)

> <PUBCHEM_IUPAC_INCHIKEY>
HHEBHJLYNLALHM-UHFFFAOYSA-N

> <PUBCHEM_XLOGP3_AA>
2.3

> <PUBCHEM_EXACT_MASS>
186.9704025

> <PUBCHEM_MOLECULAR_FORMULA>
C6H3Cl2N3

> <PUBCHEM_MOLECULAR_WEIGHT>
188.01

> <PUBCHEM_SMILES>
C1=C(C(=CC2=NNN=C21)Cl)Cl

> <PUBCHEM_OPENEYE_CAN_SMILES>
C1=C(C(=CC2=NNN=C21)Cl)Cl

> <PUBCHEM_OPENEYE_ISO_SMILES>
C1=C(C(=CC2=NNN=C21)Cl)Cl

> <PUBCHEM_CACTVS_TPSA>
41.6

> <PUBCHEM_MONOISOTOPIC_WEIGHT>
186.9704025

> <PUBCHEM_TOTAL_CHARGE>
0

> <PUBCHEM_HEAVY_ATOM_COUNT>
11

> <PUBCHEM_ATOM_DEF_STEREO_COUNT>
0

> <PUBCHEM_ATOM_UDEF_STEREO_COUNT>
0

> <PUBCHEM_BOND_DEF_STEREO_COUNT>
0

> <PUBCHEM_BOND_UDEF_STEREO_COUNT>
0

> <PUBCHEM_ISOTOPIC_ATOM_COUNT>
0

> <PUBCHEM_COMPONENT_COUNT>
1

> <PUBCHEM_CACTVS_TAUTO_COUNT>
-1

> <PUBCHEM_COORDINATE_TYPE>
1
5
255

> <PUBCHEM_BONDANNOTATIONS>
10  11  8
3  5  8
3  6  8
4  5  8
4  7  8
6  7  8
6  8  8
7  9  8
8  10  8
9  11  8

$$$$
