49796827
  -OEChem-03202506232D

 57 60  0     0  0  0  0  0  0999 V2000
   10.6387    4.6989    0.0000 Br  0  0  0  0  0  0  0  0  0  0  0  0
    4.6680    2.0604    0.0000 S   0  0  0  0  0  0  0  0  0  0  0  0
    4.2456    8.3612    0.0000 O   0  0  0  0  0  0  0  0  0  0  0  0
    1.0323    9.7985    0.0000 O   0  0  0  0  0  0  0  0  0  0  0  0
    3.5918    5.3531    0.0000 N   0  0  0  0  0  0  0  0  0  0  0  0
    2.7528    9.3343    0.0000 N   0  0  0  0  0  0  0  0  0  0  0  0
    5.2061    0.4141    0.0000 N   0  0  0  0  0  0  0  0  0  0  0  0
    6.3628    1.7032    0.0000 N   0  0  0  0  0  0  0  0  0  0  0  0
    3.6949    6.3418    0.0000 C   0  0  0  0  0  0  0  0  0  0  0  0
    2.7871    6.7470    0.0000 C   0  0  0  0  0  0  0  0  0  0  0  0
    2.6200    5.1439    0.0000 C   0  0  0  0  0  0  0  0  0  0  0  0
    2.1200    6.0099    0.0000 C   0  0  0  0  0  0  0  0  0  0  0  0
    4.3361    4.6853    0.0000 C   0  0  0  0  0  0  0  0  0  0  0  0
    4.5609    6.8418    0.0000 C   0  0  0  0  0  0  0  0  0  0  0  0
    4.1299    3.7068    0.0000 C   0  0  0  0  0  0  0  0  0  0  0  0
    2.5809    7.7254    0.0000 C   0  0  0  0  0  0  0  0  0  0  0  0
    2.1200    4.2779    0.0000 C   0  0  0  0  0  0  0  0  0  0  0  0
    1.1200    6.0099    0.0000 C   0  0  0  0  0  0  0  0  0  0  0  0
    5.4269    6.3418    0.0000 C   0  0  0  0  0  0  0  0  0  0  0  0
    4.5609    7.8418    0.0000 C   0  0  0  0  0  0  0  0  0  0  0  0
    4.8742    3.0389    0.0000 C   0  0  0  0  0  0  0  0  0  0  0  0
    1.1200    4.2779    0.0000 C   0  0  0  0  0  0  0  0  0  0  0  0
    0.6200    5.1439    0.0000 C   0  0  0  0  0  0  0  0  0  0  0  0
    6.2930    6.8418    0.0000 C   0  0  0  0  0  0  0  0  0  0  0  0
    3.2513    8.4674    0.0000 C   0  0  0  0  0  0  0  0  0  0  0  0
    1.6680    8.1338    0.0000 C   0  0  0  0  0  0  0  0  0  0  0  0
    6.2930    7.8418    0.0000 C   0  0  0  0  0  0  0  0  0  0  0  0
    5.4269    8.3418    0.0000 C   0  0  0  0  0  0  0  0  0  0  0  0
    1.7743    9.1281    0.0000 C   0  0  0  0  0  0  0  0  0  0  0  0
    7.1869    6.3072    0.0000 C   0  0  0  0  0  0  0  0  0  0  0  0
    7.1869    8.3765    0.0000 C   0  0  0  0  0  0  0  0  0  0  0  0
    8.0930    6.8210    0.0000 C   0  0  0  0  0  0  0  0  0  0  0  0
    8.0930    7.8626    0.0000 C   0  0  0  0  0  0  0  0  0  0  0  0
    5.4123    1.3926    0.0000 C   0  0  0  0  0  0  0  0  0  0  0  0
    4.9114    4.4540    0.0000 H   0  0  0  0  0  0  0  0  0  0  0  0
    4.6638    5.2116    0.0000 H   0  0  0  0  0  0  0  0  0  0  0  0
    3.5546    3.9380    0.0000 H   0  0  0  0  0  0  0  0  0  0  0  0
    3.8023    3.1804    0.0000 H   0  0  0  0  0  0  0  0  0  0  0  0
    2.4300    3.7410    0.0000 H   0  0  0  0  0  0  0  0  0  0  0  0
    0.8100    6.5469    0.0000 H   0  0  0  0  0  0  0  0  0  0  0  0
    5.4269    5.7218    0.0000 H   0  0  0  0  0  0  0  0  0  0  0  0
    4.0240    8.1518    0.0000 H   0  0  0  0  0  0  0  0  0  0  0  0
    5.4495    2.8077    0.0000 H   0  0  0  0  0  0  0  0  0  0  0  0
    5.2018    3.5653    0.0000 H   0  0  0  0  0  0  0  0  0  0  0  0
    0.8100    3.7410    0.0000 H   0  0  0  0  0  0  0  0  0  0  0  0
    0.0000    5.1439    0.0000 H   0  0  0  0  0  0  0  0  0  0  0  0
    1.1306    7.8247    0.0000 H   0  0  0  0  0  0  0  0  0  0  0  0
    5.4269    8.9618    0.0000 H   0  0  0  0  0  0  0  0  0  0  0  0
    3.0059    9.9003    0.0000 H   0  0  0  0  0  0  0  0  0  0  0  0
    7.1797    5.6872    0.0000 H   0  0  0  0  0  0  0  0  0  0  0  0
    7.1797    8.9964    0.0000 H   0  0  0  0  0  0  0  0  0  0  0  0
    8.6287    6.5089    0.0000 H   0  0  0  0  0  0  0  0  0  0  0  0
    8.6287    8.1747    0.0000 H   0  0  0  0  0  0  0  0  0  0  0  0
    5.6675    0.0000    0.0000 H   0  0  0  0  0  0  0  0  0  0  0  0
    4.6167    0.2215    0.0000 H   0  0  0  0  0  0  0  0  0  0  0  0
    6.8243    1.2892    0.0000 H   0  0  0  0  0  0  0  0  0  0  0  0
   11.6387    4.6989    0.0000 H   0  0  0  0  0  0  0  0  0  0  0  0
  1 57  1  0  0  0  0
  2 21  1  0  0  0  0
  2 34  1  0  0  0  0
  3 25  2  0  0  0  0
  4 29  2  0  0  0  0
  5  9  1  0  0  0  0
  5 11  1  0  0  0  0
  5 13  1  0  0  0  0
  6 25  1  0  0  0  0
  6 29  1  0  0  0  0
  6 49  1  0  0  0  0
  7 34  1  0  0  0  0
  7 54  1  0  0  0  0
  7 55  1  0  0  0  0
  8 34  2  0  0  0  0
  8 56  1  0  0  0  0
  9 10  2  0  0  0  0
  9 14  1  0  0  0  0
 10 12  1  0  0  0  0
 10 16  1  0  0  0  0
 11 12  1  0  0  0  0
 11 17  2  0  0  0  0
 12 18  2  0  0  0  0
 13 15  1  0  0  0  0
 13 35  1  0  0  0  0
 13 36  1  0  0  0  0
 14 19  2  0  0  0  0
 14 20  1  0  0  0  0
 15 21  1  0  0  0  0
 15 37  1  0  0  0  0
 15 38  1  0  0  0  0
 16 25  1  0  0  0  0
 16 26  2  0  0  0  0
 17 22  1  0  0  0  0
 17 39  1  0  0  0  0
 18 23  1  0  0  0  0
 18 40  1  0  0  0  0
 19 24  1  0  0  0  0
 19 41  1  0  0  0  0
 20 28  2  0  0  0  0
 20 42  1  0  0  0  0
 21 43  1  0  0  0  0
 21 44  1  0  0  0  0
 22 23  2  0  0  0  0
 22 45  1  0  0  0  0
 23 46  1  0  0  0  0
 24 27  1  0  0  0  0
 24 30  2  0  0  0  0
 26 29  1  0  0  0  0
 26 47  1  0  0  0  0
 27 28  1  0  0  0  0
 27 31  2  0  0  0  0
 28 48  1  0  0  0  0
 30 32  1  0  0  0  0
 30 50  1  0  0  0  0
 31 33  1  0  0  0  0
 31 51  1  0  0  0  0
 32 33  2  0  0  0  0
 32 52  1  0  0  0  0
 33 53  1  0  0  0  0
M  END
> <PUBCHEM_COMPOUND_CID>
49796827

> <PUBCHEM_COMPOUND_CANONICALIZED>
1

> <PUBCHEM_CACTVS_COMPLEXITY>
814

> <PUBCHEM_CACTVS_HBOND_ACCEPTOR>
4

> <PUBCHEM_CACTVS_HBOND_DONOR>
4

> <PUBCHEM_CACTVS_ROTATABLE_BOND>
7

> <PUBCHEM_CACTVS_SUBSKEYS>
AAADceB7sABAEAAAAAAAAAAAAAAAAWIAAAAwYMAAAAAAAFjB9AAAHgQQAAAADAjF3gSxwPPMEAioAyVydACCgiDhAjAI2CE4ZNgIIPLglZGEIAhglCDIyYccicCewAACAAASAACAAAQAACQAAAAAAAAAAA==

> <PUBCHEM_IUPAC_OPENEYE_NAME>
2-[3-[3-(2,5-dioxopyrrol-3-yl)-2-(2-naphthyl)indol-1-yl]propyl]isothiourea;hydrobromide

> <PUBCHEM_IUPAC_CAS_NAME>
carbamimidothioic acid 3-[3-(2,5-dioxo-3-pyrrolyl)-2-(2-naphthalenyl)-1-indolyl]propyl ester;hydrobromide

> <PUBCHEM_IUPAC_NAME_MARKUP>
3-[3-(2,5-dioxopyrrol-3-yl)-2-naphthalen-2-ylindol-1-yl]propyl carbamimidothioate;hydrobromide

> <PUBCHEM_IUPAC_NAME>
3-[3-(2,5-dioxopyrrol-3-yl)-2-naphthalen-2-ylindol-1-yl]propyl carbamimidothioate;hydrobromide

> <PUBCHEM_IUPAC_SYSTEMATIC_NAME>
3-[3-[2,5-bis(oxidanylidene)pyrrol-3-yl]-2-naphthalen-2-yl-indol-1-yl]propyl carbamimidothioate;hydrobromide

> <PUBCHEM_IUPAC_TRADITIONAL_NAME>
2-[3-[3-(2,5-diketo-3-pyrrolin-3-yl)-2-(2-naphthyl)indol-1-yl]propyl]isothiourea;hydrobromide

> <PUBCHEM_IUPAC_INCHI>
InChI=1S/C26H22N4O2S.BrH/c27-26(28)33-13-5-12-30-21-9-4-3-8-19(21)23(20-15-22(31)29-25(20)32)24(30)18-11-10-16-6-1-2-7-17(16)14-18;/h1-4,6-11,14-15H,5,12-13H2,(H3,27,28)(H,29,31,32);1H

> <PUBCHEM_IUPAC_INCHIKEY>
UQTUWSNFHOEMEG-UHFFFAOYSA-N

> <PUBCHEM_EXACT_MASS>
534.07251

> <PUBCHEM_MOLECULAR_FORMULA>
C26H23BrN4O2S

> <PUBCHEM_MOLECULAR_WEIGHT>
535.5

> <PUBCHEM_SMILES>
C1=CC=C2C=C(C=CC2=C1)C3=C(C4=CC=CC=C4N3CCCSC(=N)N)C5=CC(=O)NC5=O.Br

> <PUBCHEM_OPENEYE_CAN_SMILES>
C1=CC=C2C=C(C=CC2=C1)C3=C(C4=CC=CC=C4N3CCCSC(=N)N)C5=CC(=O)NC5=O.Br

> <PUBCHEM_OPENEYE_ISO_SMILES>
C1=CC=C2C=C(C=CC2=C1)C3=C(C4=CC=CC=C4N3CCCSC(=N)N)C5=CC(=O)NC5=O.Br

> <PUBCHEM_CACTVS_TPSA>
126

> <PUBCHEM_MONOISOTOPIC_WEIGHT>
534.07251

> <PUBCHEM_TOTAL_CHARGE>
0

> <PUBCHEM_HEAVY_ATOM_COUNT>
34

> <PUBCHEM_ATOM_DEF_STEREO_COUNT>
0

> <PUBCHEM_ATOM_UDEF_STEREO_COUNT>
0

> <PUBCHEM_BOND_DEF_STEREO_COUNT>
0

> <PUBCHEM_BOND_UDEF_STEREO_COUNT>
0

> <PUBCHEM_ISOTOPIC_ATOM_COUNT>
0

> <PUBCHEM_COMPONENT_COUNT>
2

> <PUBCHEM_CACTVS_TAUTO_COUNT>
-1

> <PUBCHEM_COORDINATE_TYPE>
1
5
255

> <PUBCHEM_BONDANNOTATIONS>
10  12  8
11  12  8
11  17  8
12  18  8
14  19  8
14  20  8
17  22  8
18  23  8
19  24  8
20  28  8
22  23  8
24  27  8
24  30  8
27  28  8
27  31  8
30  32  8
31  33  8
32  33  8
5  11  8
5  9  8
9  10  8

$$$$
