15550318
  -OEChem-03192523232D

 53 55  0     0  0  0  0  0  0999 V2000
    4.5981   -6.0600    0.0000 O   0  0  0  0  0  0  0  0  0  0  0  0
    2.8660   -5.0600    0.0000 O   0  0  0  0  0  0  0  0  0  0  0  0
    6.3301   -5.0600    0.0000 O   0  0  0  0  0  0  0  0  0  0  0  0
    4.5981   -2.0600    0.0000 N   0  0  0  0  0  0  0  0  0  0  0  0
    6.3301    3.9400    0.0000 N   0  0  0  0  0  0  0  0  0  0  0  0
    5.4641   -0.5600    0.0000 N   0  0  0  0  0  0  0  0  0  0  0  0
    7.1962    2.4400    0.0000 N   0  0  0  0  0  0  0  0  0  0  0  0
    6.3301   -2.0600    0.0000 N   0  0  0  0  0  0  0  0  0  0  0  0
    8.0622    5.9400    0.0000 N   0  0  0  0  0  0  0  0  0  0  0  0
    4.5981   -3.0600    0.0000 C   0  0  0  0  0  0  0  0  0  0  0  0
    6.3301    0.9400    0.0000 C   0  0  0  0  0  0  0  0  0  0  0  0
    4.5981   -5.0600    0.0000 C   0  0  0  0  0  0  0  0  0  0  0  0
    3.7320   -4.5600    0.0000 C   0  0  0  0  0  0  0  0  0  0  0  0
    5.4641   -4.5600    0.0000 C   0  0  0  0  0  0  0  0  0  0  0  0
    3.7320   -3.5600    0.0000 C   0  0  0  0  0  0  0  0  0  0  0  0
    5.4641   -3.5600    0.0000 C   0  0  0  0  0  0  0  0  0  0  0  0
    6.3301   -0.0600    0.0000 C   0  0  0  0  0  0  0  0  0  0  0  0
    7.1962    4.4400    0.0000 C   0  0  0  0  0  0  0  0  0  0  0  0
    6.3301    2.9400    0.0000 C   0  0  0  0  0  0  0  0  0  0  0  0
    5.4641   -1.5600    0.0000 C   0  0  0  0  0  0  0  0  0  0  0  0
    5.4641    1.4400    0.0000 C   0  0  0  0  0  0  0  0  0  0  0  0
    5.4641    2.4400    0.0000 C   0  0  0  0  0  0  0  0  0  0  0  0
    7.1962    5.4400    0.0000 C   0  0  0  0  0  0  0  0  0  0  0  0
    7.1962    1.4400    0.0000 C   0  0  0  0  0  0  0  0  0  0  0  0
    7.1962   -0.5600    0.0000 C   0  0  0  0  0  0  0  0  0  0  0  0
    7.1962   -1.5600    0.0000 C   0  0  0  0  0  0  0  0  0  0  0  0
    3.7320   -6.5600    0.0000 C   0  0  0  0  0  0  0  0  0  0  0  0
    2.0000   -4.5600    0.0000 C   0  0  0  0  0  0  0  0  0  0  0  0
    6.3301   -6.0600    0.0000 C   0  0  0  0  0  0  0  0  0  0  0  0
    3.1951   -3.2500    0.0000 H   0  0  0  0  0  0  0  0  0  0  0  0
    6.0010   -3.2500    0.0000 H   0  0  0  0  0  0  0  0  0  0  0  0
    4.0611   -1.7500    0.0000 H   0  0  0  0  0  0  0  0  0  0  0  0
    7.4082    3.8574    0.0000 H   0  0  0  0  0  0  0  0  0  0  0  0
    7.8067    4.5477    0.0000 H   0  0  0  0  0  0  0  0  0  0  0  0
    5.7932    4.2500    0.0000 H   0  0  0  0  0  0  0  0  0  0  0  0
    4.9272    1.1300    0.0000 H   0  0  0  0  0  0  0  0  0  0  0  0
    4.9272    2.7500    0.0000 H   0  0  0  0  0  0  0  0  0  0  0  0
    6.9841    6.0226    0.0000 H   0  0  0  0  0  0  0  0  0  0  0  0
    6.5856    5.3323    0.0000 H   0  0  0  0  0  0  0  0  0  0  0  0
    7.7331    1.1300    0.0000 H   0  0  0  0  0  0  0  0  0  0  0  0
    7.7331   -0.2500    0.0000 H   0  0  0  0  0  0  0  0  0  0  0  0
    7.7331   -1.8700    0.0000 H   0  0  0  0  0  0  0  0  0  0  0  0
    8.0622    6.5600    0.0000 H   0  0  0  0  0  0  0  0  0  0  0  0
    8.5991    5.6300    0.0000 H   0  0  0  0  0  0  0  0  0  0  0  0
    3.4220   -6.0231    0.0000 H   0  0  0  0  0  0  0  0  0  0  0  0
    3.1951   -6.8700    0.0000 H   0  0  0  0  0  0  0  0  0  0  0  0
    4.0420   -7.0969    0.0000 H   0  0  0  0  0  0  0  0  0  0  0  0
    2.3100   -4.0231    0.0000 H   0  0  0  0  0  0  0  0  0  0  0  0
    1.4631   -4.2500    0.0000 H   0  0  0  0  0  0  0  0  0  0  0  0
    1.6900   -5.0969    0.0000 H   0  0  0  0  0  0  0  0  0  0  0  0
    5.7101   -6.0600    0.0000 H   0  0  0  0  0  0  0  0  0  0  0  0
    6.3301   -6.6800    0.0000 H   0  0  0  0  0  0  0  0  0  0  0  0
    6.9501   -6.0600    0.0000 H   0  0  0  0  0  0  0  0  0  0  0  0
  1 12  1  0  0  0  0
  1 27  1  0  0  0  0
  2 13  1  0  0  0  0
  2 28  1  0  0  0  0
  3 14  1  0  0  0  0
  3 29  1  0  0  0  0
  4 10  1  0  0  0  0
  4 20  1  0  0  0  0
  4 32  1  0  0  0  0
  5 18  1  0  0  0  0
  5 19  1  0  0  0  0
  5 35  1  0  0  0  0
  6 17  2  0  0  0  0
  6 20  1  0  0  0  0
  7 19  2  0  0  0  0
  7 24  1  0  0  0  0
  8 20  2  0  0  0  0
  8 26  1  0  0  0  0
  9 23  1  0  0  0  0
  9 43  1  0  0  0  0
  9 44  1  0  0  0  0
 10 15  2  0  0  0  0
 10 16  1  0  0  0  0
 11 17  1  0  0  0  0
 11 21  1  0  0  0  0
 11 24  2  0  0  0  0
 12 13  2  0  0  0  0
 12 14  1  0  0  0  0
 13 15  1  0  0  0  0
 14 16  2  0  0  0  0
 15 30  1  0  0  0  0
 16 31  1  0  0  0  0
 17 25  1  0  0  0  0
 18 23  1  0  0  0  0
 18 33  1  0  0  0  0
 18 34  1  0  0  0  0
 19 22  1  0  0  0  0
 21 22  2  0  0  0  0
 21 36  1  0  0  0  0
 22 37  1  0  0  0  0
 23 38  1  0  0  0  0
 23 39  1  0  0  0  0
 24 40  1  0  0  0  0
 25 26  2  0  0  0  0
 25 41  1  0  0  0  0
 26 42  1  0  0  0  0
 27 45  1  0  0  0  0
 27 46  1  0  0  0  0
 27 47  1  0  0  0  0
 28 48  1  0  0  0  0
 28 49  1  0  0  0  0
 28 50  1  0  0  0  0
 29 51  1  0  0  0  0
 29 52  1  0  0  0  0
 29 53  1  0  0  0  0
M  END
> <PUBCHEM_COMPOUND_CID>
15550318

> <PUBCHEM_COMPOUND_CANONICALIZED>
1

> <PUBCHEM_CACTVS_COMPLEXITY>
459

> <PUBCHEM_CACTVS_HBOND_ACCEPTOR>
9

> <PUBCHEM_CACTVS_HBOND_DONOR>
3

> <PUBCHEM_CACTVS_ROTATABLE_BOND>
9

> <PUBCHEM_CACTVS_SUBSKEYS>
AAADceB7sAAAAAAAAAAAAAAAAAAAAAAAAAA8WIAAAAAAAAAB8AAAHgAQAAAADAzBngY/9pbIFACgAzZnZACCiCkxIqAJ2KA+7JiNb+LE+duUNCpv0B/K6Cew8A8OAEAACgAAQAAAgAAUAACAAAAAAAAAAA==

> <PUBCHEM_IUPAC_OPENEYE_NAME>
N'-[5-[2-(3,4,5-trimethoxyanilino)pyrimidin-4-yl]-2-pyridyl]ethane-1,2-diamine

> <PUBCHEM_IUPAC_CAS_NAME>
N'-[5-[2-(3,4,5-trimethoxyanilino)-4-pyrimidinyl]-2-pyridinyl]ethane-1,2-diamine

> <PUBCHEM_IUPAC_NAME_MARKUP>
<I>N</I>&apos;-[5-[2-(3,4,5-trimethoxyanilino)pyrimidin-4-yl]pyridin-2-yl]ethane-1,2-diamine

> <PUBCHEM_IUPAC_NAME>
N'-[5-[2-(3,4,5-trimethoxyanilino)pyrimidin-4-yl]pyridin-2-yl]ethane-1,2-diamine

> <PUBCHEM_IUPAC_SYSTEMATIC_NAME>
N'-[5-[2-[(3,4,5-trimethoxyphenyl)amino]pyrimidin-4-yl]pyridin-2-yl]ethane-1,2-diamine

> <PUBCHEM_IUPAC_TRADITIONAL_NAME>
2-aminoethyl-[5-[2-(3,4,5-trimethoxyanilino)pyrimidin-4-yl]-2-pyridyl]amine

> <PUBCHEM_IUPAC_INCHI>
InChI=1S/C20H24N6O3/c1-27-16-10-14(11-17(28-2)19(16)29-3)25-20-23-8-6-15(26-20)13-4-5-18(24-12-13)22-9-7-21/h4-6,8,10-12H,7,9,21H2,1-3H3,(H,22,24)(H,23,25,26)

> <PUBCHEM_IUPAC_INCHIKEY>
QNULKTUETCUJKC-UHFFFAOYSA-N

> <PUBCHEM_XLOGP3_AA>
2

> <PUBCHEM_EXACT_MASS>
396.19098865

> <PUBCHEM_MOLECULAR_FORMULA>
C20H24N6O3

> <PUBCHEM_MOLECULAR_WEIGHT>
396.4

> <PUBCHEM_SMILES>
COC1=CC(=CC(=C1OC)OC)NC2=NC=CC(=N2)C3=CN=C(C=C3)NCCN

> <PUBCHEM_OPENEYE_CAN_SMILES>
COC1=CC(=CC(=C1OC)OC)NC2=NC=CC(=N2)C3=CN=C(C=C3)NCCN

> <PUBCHEM_OPENEYE_ISO_SMILES>
COC1=CC(=CC(=C1OC)OC)NC2=NC=CC(=N2)C3=CN=C(C=C3)NCCN

> <PUBCHEM_CACTVS_TPSA>
116

> <PUBCHEM_MONOISOTOPIC_WEIGHT>
396.19098865

> <PUBCHEM_TOTAL_CHARGE>
0

> <PUBCHEM_HEAVY_ATOM_COUNT>
29

> <PUBCHEM_ATOM_DEF_STEREO_COUNT>
0

> <PUBCHEM_ATOM_UDEF_STEREO_COUNT>
0

> <PUBCHEM_BOND_DEF_STEREO_COUNT>
0

> <PUBCHEM_BOND_UDEF_STEREO_COUNT>
0

> <PUBCHEM_ISOTOPIC_ATOM_COUNT>
0

> <PUBCHEM_COMPONENT_COUNT>
1

> <PUBCHEM_CACTVS_TAUTO_COUNT>
-1

> <PUBCHEM_COORDINATE_TYPE>
1
5
255

> <PUBCHEM_BONDANNOTATIONS>
10  15  8
10  16  8
11  21  8
11  24  8
12  13  8
12  14  8
13  15  8
14  16  8
17  25  8
19  22  8
21  22  8
25  26  8
6  17  8
6  20  8
7  19  8
7  24  8
8  20  8
8  26  8

$$$$
