24809803
  -OEChem-03202500532D

 34 36  0     0  0  0  0  0  0999 V2000
    2.9380   -1.7428    0.0000 Cl  0  0  0  0  0  0  0  0  0  0  0  0
    4.6701   -4.7428    0.0000 Cl  0  0  0  0  0  0  0  0  0  0  0  0
    6.6381   -1.4422    0.0000 O   0  0  0  0  0  0  0  0  0  0  0  0
    3.8611   -0.1550    0.0000 N   0  0  0  0  0  0  0  0  0  0  0  0
    3.9890    2.5186    0.0000 N   0  0  0  0  0  0  0  0  0  0  0  0
    7.1733    0.2051    0.0000 N   0  0  0  0  0  0  0  0  0  0  0  0
    2.4067    3.2231    0.0000 N   0  0  0  0  0  0  0  0  0  0  0  0
    3.8080    4.2412    0.0000 N   0  0  0  0  0  0  0  0  0  0  0  0
    4.6701   -0.7428    0.0000 C   0  0  0  0  0  0  0  0  0  0  0  0
    5.4791   -0.1550    0.0000 C   0  0  0  0  0  0  0  0  0  0  0  0
    4.1701    0.7961    0.0000 C   0  0  0  0  0  0  0  0  0  0  0  0
    4.6701   -1.7428    0.0000 C   0  0  0  0  0  0  0  0  0  0  0  0
    5.1701    0.7961    0.0000 C   0  0  0  0  0  0  0  0  0  0  0  0
    3.5823    1.6051    0.0000 C   0  0  0  0  0  0  0  0  0  0  0  0
    3.8041   -2.2428    0.0000 C   0  0  0  0  0  0  0  0  0  0  0  0
    5.5361   -2.2428    0.0000 C   0  0  0  0  0  0  0  0  0  0  0  0
    6.4302   -0.4640    0.0000 C   0  0  0  0  0  0  0  0  0  0  0  0
    2.5878    1.5006    0.0000 C   0  0  0  0  0  0  0  0  0  0  0  0
    3.8041   -3.2428    0.0000 C   0  0  0  0  0  0  0  0  0  0  0  0
    5.5361   -3.2428    0.0000 C   0  0  0  0  0  0  0  0  0  0  0  0
    4.6701   -3.7428    0.0000 C   0  0  0  0  0  0  0  0  0  0  0  0
    2.0000    2.3096    0.0000 C   0  0  0  0  0  0  0  0  0  0  0  0
    3.4013    3.3276    0.0000 C   0  0  0  0  0  0  0  0  0  0  0  0
    3.2714   -0.3466    0.0000 H   0  0  0  0  0  0  0  0  0  0  0  0
    5.5345    1.2976    0.0000 H   0  0  0  0  0  0  0  0  0  0  0  0
    6.0730   -1.9328    0.0000 H   0  0  0  0  0  0  0  0  0  0  0  0
    2.3356    0.9342    0.0000 H   0  0  0  0  0  0  0  0  0  0  0  0
    3.2671   -3.5528    0.0000 H   0  0  0  0  0  0  0  0  0  0  0  0
    6.0730   -3.5528    0.0000 H   0  0  0  0  0  0  0  0  0  0  0  0
    1.3834    2.2448    0.0000 H   0  0  0  0  0  0  0  0  0  0  0  0
    7.7630    0.0135    0.0000 H   0  0  0  0  0  0  0  0  0  0  0  0
    7.0444    0.8116    0.0000 H   0  0  0  0  0  0  0  0  0  0  0  0
    3.4436    4.7428    0.0000 H   0  0  0  0  0  0  0  0  0  0  0  0
    4.4246    4.3060    0.0000 H   0  0  0  0  0  0  0  0  0  0  0  0
  1 15  1  0  0  0  0
  2 21  1  0  0  0  0
  3 17  2  0  0  0  0
  4  9  1  0  0  0  0
  4 11  1  0  0  0  0
  4 24  1  0  0  0  0
  5 14  2  0  0  0  0
  5 23  1  0  0  0  0
  6 17  1  0  0  0  0
  6 31  1  0  0  0  0
  6 32  1  0  0  0  0
  7 22  1  0  0  0  0
  7 23  2  0  0  0  0
  8 23  1  0  0  0  0
  8 33  1  0  0  0  0
  8 34  1  0  0  0  0
  9 10  2  0  0  0  0
  9 12  1  0  0  0  0
 10 13  1  0  0  0  0
 10 17  1  0  0  0  0
 11 13  2  0  0  0  0
 11 14  1  0  0  0  0
 12 15  2  0  0  0  0
 12 16  1  0  0  0  0
 13 25  1  0  0  0  0
 14 18  1  0  0  0  0
 15 19  1  0  0  0  0
 16 20  2  0  0  0  0
 16 26  1  0  0  0  0
 18 22  2  0  0  0  0
 18 27  1  0  0  0  0
 19 21  2  0  0  0  0
 19 28  1  0  0  0  0
 20 21  1  0  0  0  0
 20 29  1  0  0  0  0
 22 30  1  0  0  0  0
M  END
> <PUBCHEM_COMPOUND_CID>
24809803

> <PUBCHEM_COMPOUND_CANONICALIZED>
1

> <PUBCHEM_CACTVS_COMPLEXITY>
440

> <PUBCHEM_CACTVS_HBOND_ACCEPTOR>
4

> <PUBCHEM_CACTVS_HBOND_DONOR>
3

> <PUBCHEM_CACTVS_ROTATABLE_BOND>
3

> <PUBCHEM_CACTVS_SUBSKEYS>
AAADccBzoAAGAAAAAAAAAAAAAAAAAWAAAAA8QAAAAAAAAAAB8AAAHgIQAAAADArBniQ9kJbJkACoAzV3dACCgCk1B6AJ2SE4ZtiIaPrB39GUJYhokALIyeccicCeBAAAAACBAAAIAAAAAQIAAAAAAAAAAA==

> <PUBCHEM_IUPAC_OPENEYE_NAME>
5-(2-aminopyrimidin-4-yl)-2-(2,4-dichlorophenyl)-1H-pyrrole-3-carboxamide

> <PUBCHEM_IUPAC_CAS_NAME>
5-(2-amino-4-pyrimidinyl)-2-(2,4-dichlorophenyl)-1H-pyrrole-3-carboxamide

> <PUBCHEM_IUPAC_NAME_MARKUP>
5-(2-aminopyrimidin-4-yl)-2-(2,4-dichlorophenyl)-1<I>H</I>-pyrrole-3-carboxamide

> <PUBCHEM_IUPAC_NAME>
5-(2-aminopyrimidin-4-yl)-2-(2,4-dichlorophenyl)-1H-pyrrole-3-carboxamide

> <PUBCHEM_IUPAC_SYSTEMATIC_NAME>
5-(2-azanylpyrimidin-4-yl)-2-(2,4-dichlorophenyl)-1H-pyrrole-3-carboxamide

> <PUBCHEM_IUPAC_TRADITIONAL_NAME>
5-(2-aminopyrimidin-4-yl)-2-(2,4-dichlorophenyl)-1H-pyrrole-3-carboxamide

> <PUBCHEM_IUPAC_INCHI>
InChI=1S/C15H11Cl2N5O/c16-7-1-2-8(10(17)5-7)13-9(14(18)23)6-12(21-13)11-3-4-20-15(19)22-11/h1-6,21H,(H2,18,23)(H2,19,20,22)

> <PUBCHEM_IUPAC_INCHIKEY>
RKUKAACYUCUJEE-UHFFFAOYSA-N

> <PUBCHEM_XLOGP3_AA>
2.1

> <PUBCHEM_EXACT_MASS>
347.0340654

> <PUBCHEM_MOLECULAR_FORMULA>
C15H11Cl2N5O

> <PUBCHEM_MOLECULAR_WEIGHT>
348.2

> <PUBCHEM_SMILES>
C1=CC(=C(C=C1Cl)Cl)C2=C(C=C(N2)C3=NC(=NC=C3)N)C(=O)N

> <PUBCHEM_OPENEYE_CAN_SMILES>
C1=CC(=C(C=C1Cl)Cl)C2=C(C=C(N2)C3=NC(=NC=C3)N)C(=O)N

> <PUBCHEM_OPENEYE_ISO_SMILES>
C1=CC(=C(C=C1Cl)Cl)C2=C(C=C(N2)C3=NC(=NC=C3)N)C(=O)N

> <PUBCHEM_CACTVS_TPSA>
111

> <PUBCHEM_MONOISOTOPIC_WEIGHT>
347.0340654

> <PUBCHEM_TOTAL_CHARGE>
0

> <PUBCHEM_HEAVY_ATOM_COUNT>
23

> <PUBCHEM_ATOM_DEF_STEREO_COUNT>
0

> <PUBCHEM_ATOM_UDEF_STEREO_COUNT>
0

> <PUBCHEM_BOND_DEF_STEREO_COUNT>
0

> <PUBCHEM_BOND_UDEF_STEREO_COUNT>
0

> <PUBCHEM_ISOTOPIC_ATOM_COUNT>
0

> <PUBCHEM_COMPONENT_COUNT>
1

> <PUBCHEM_CACTVS_TAUTO_COUNT>
-1

> <PUBCHEM_COORDINATE_TYPE>
1
5
255

> <PUBCHEM_BONDANNOTATIONS>
10  13  8
11  13  8
12  15  8
12  16  8
14  18  8
15  19  8
16  20  8
18  22  8
19  21  8
20  21  8
4  11  8
4  9  8
5  14  8
5  23  8
7  22  8
7  23  8
9  10  8

$$$$
