9869943
  -OEChem-03202505152D

 60 63  0     0  0  0  0  0  0999 V2000
    2.0000   -1.9735    0.0000 Cl  0  0  0  0  0  0  0  0  0  0  0  0
    5.0000   -3.7056    0.0000 Cl  0  0  0  0  0  0  0  0  0  0  0  0
    6.5080    0.5580    0.0000 O   0  0  0  0  0  0  0  0  0  0  0  0
    5.5836   -1.1688    0.0000 N   0  0  0  0  0  0  0  0  0  0  0  0
    8.2778    0.5958    0.0000 N   0  0  0  0  0  0  0  0  0  0  0  0
    5.5836   -2.7782    0.0000 N   0  0  0  0  0  0  0  0  0  0  0  0
   10.9235    3.0682    0.0000 N   0  0  0  0  0  0  0  0  0  0  0  0
    4.0000   -1.9735    0.0000 N   0  0  0  0  0  0  0  0  0  0  0  0
    6.5298   -1.4735    0.0000 C   0  0  0  0  0  0  0  0  0  0  0  0
    7.3958   -0.9735    0.0000 C   0  0  0  0  0  0  0  0  0  0  0  0
    8.2619   -1.4735    0.0000 C   0  0  0  0  0  0  0  0  0  0  0  0
    6.5298   -2.4735    0.0000 C   0  0  0  0  0  0  0  0  0  0  0  0
    9.1719   -0.9667    0.0000 C   0  0  0  0  0  0  0  0  0  0  0  0
    9.1799    0.0749    0.0000 C   0  0  0  0  0  0  0  0  0  0  0  0
    7.3798    0.0680    0.0000 C   0  0  0  0  0  0  0  0  0  0  0  0
    8.2619   -2.4735    0.0000 C   0  0  0  0  0  0  0  0  0  0  0  0
    5.0000   -1.9735    0.0000 C   0  0  0  0  0  0  0  0  0  0  0  0
    7.3958   -2.9735    0.0000 C   0  0  0  0  0  0  0  0  0  0  0  0
   10.0321   -1.4766    0.0000 C   0  0  0  0  0  0  0  0  0  0  0  0
    5.2730   -0.2182    0.0000 C   0  0  0  0  0  0  0  0  0  0  0  0
   10.0479    0.5716    0.0000 C   0  0  0  0  0  0  0  0  0  0  0  0
   10.9197    2.0683    0.0000 C   0  0  0  0  0  0  0  0  0  0  0  0
   10.0517    1.5716    0.0000 C   0  0  0  0  0  0  0  0  0  0  0  0
   11.7915    3.5649    0.0000 C   0  0  0  0  0  0  0  0  0  0  0  0
   10.0594    3.5716    0.0000 C   0  0  0  0  0  0  0  0  0  0  0  0
    3.5000   -2.8395    0.0000 C   0  0  0  0  0  0  0  0  0  0  0  0
   11.7953    4.5649    0.0000 C   0  0  0  0  0  0  0  0  0  0  0  0
   10.0633    4.5716    0.0000 C   0  0  0  0  0  0  0  0  0  0  0  0
    2.5000   -2.8395    0.0000 C   0  0  0  0  0  0  0  0  0  0  0  0
    4.0000   -3.7056    0.0000 C   0  0  0  0  0  0  0  0  0  0  0  0
    2.0000   -3.7056    0.0000 C   0  0  0  0  0  0  0  0  0  0  0  0
    3.5000   -4.5716    0.0000 C   0  0  0  0  0  0  0  0  0  0  0  0
    2.5000   -4.5716    0.0000 C   0  0  0  0  0  0  0  0  0  0  0  0
    8.7988   -2.7835    0.0000 H   0  0  0  0  0  0  0  0  0  0  0  0
    7.3958   -3.5935    0.0000 H   0  0  0  0  0  0  0  0  0  0  0  0
    8.2754    1.2158    0.0000 H   0  0  0  0  0  0  0  0  0  0  0  0
    9.7159   -2.0100    0.0000 H   0  0  0  0  0  0  0  0  0  0  0  0
   10.5654   -1.7928    0.0000 H   0  0  0  0  0  0  0  0  0  0  0  0
   10.3483   -0.9433    0.0000 H   0  0  0  0  0  0  0  0  0  0  0  0
    5.8623   -0.0256    0.0000 H   0  0  0  0  0  0  0  0  0  0  0  0
    5.0803    0.3711    0.0000 H   0  0  0  0  0  0  0  0  0  0  0  0
    4.6836   -0.4109    0.0000 H   0  0  0  0  0  0  0  0  0  0  0  0
   10.5836    0.2595    0.0000 H   0  0  0  0  0  0  0  0  0  0  0  0
   11.1295    1.4848    0.0000 H   0  0  0  0  0  0  0  0  0  0  0  0
   11.5306    2.1736    0.0000 H   0  0  0  0  0  0  0  0  0  0  0  0
    9.5160    1.8837    0.0000 H   0  0  0  0  0  0  0  0  0  0  0  0
    3.6900   -1.4366    0.0000 H   0  0  0  0  0  0  0  0  0  0  0  0
   12.0013    2.9815    0.0000 H   0  0  0  0  0  0  0  0  0  0  0  0
   12.4024    3.6702    0.0000 H   0  0  0  0  0  0  0  0  0  0  0  0
    9.4493    3.6816    0.0000 H   0  0  0  0  0  0  0  0  0  0  0  0
    9.8451    2.9898    0.0000 H   0  0  0  0  0  0  0  0  0  0  0  0
   12.4153    4.5625    0.0000 H   0  0  0  0  0  0  0  0  0  0  0  0
   11.7977    5.1849    0.0000 H   0  0  0  0  0  0  0  0  0  0  0  0
   11.1753    4.5673    0.0000 H   0  0  0  0  0  0  0  0  0  0  0  0
   10.6833    4.5692    0.0000 H   0  0  0  0  0  0  0  0  0  0  0  0
   10.0657    5.1916    0.0000 H   0  0  0  0  0  0  0  0  0  0  0  0
    9.4433    4.5740    0.0000 H   0  0  0  0  0  0  0  0  0  0  0  0
    1.3800   -3.7056    0.0000 H   0  0  0  0  0  0  0  0  0  0  0  0
    3.8100   -5.1085    0.0000 H   0  0  0  0  0  0  0  0  0  0  0  0
    2.1900   -5.1085    0.0000 H   0  0  0  0  0  0  0  0  0  0  0  0
  1 29  1  0  0  0  0
  2 30  1  0  0  0  0
  3 15  2  0  0  0  0
  4  9  1  0  0  0  0
  4 17  1  0  0  0  0
  4 20  1  0  0  0  0
  5 14  1  0  0  0  0
  5 15  1  0  0  0  0
  5 36  1  0  0  0  0
  6 12  1  0  0  0  0
  6 17  2  0  0  0  0
  7 22  1  0  0  0  0
  7 24  1  0  0  0  0
  7 25  1  0  0  0  0
  8 17  1  0  0  0  0
  8 26  1  0  0  0  0
  8 47  1  0  0  0  0
  9 10  1  0  0  0  0
  9 12  2  0  0  0  0
 10 11  2  0  0  0  0
 10 15  1  0  0  0  0
 11 13  1  0  0  0  0
 11 16  1  0  0  0  0
 12 18  1  0  0  0  0
 13 14  2  0  0  0  0
 13 19  1  0  0  0  0
 14 21  1  0  0  0  0
 16 18  2  0  0  0  0
 16 34  1  0  0  0  0
 18 35  1  0  0  0  0
 19 37  1  0  0  0  0
 19 38  1  0  0  0  0
 19 39  1  0  0  0  0
 20 40  1  0  0  0  0
 20 41  1  0  0  0  0
 20 42  1  0  0  0  0
 21 23  2  0  0  0  0
 21 43  1  0  0  0  0
 22 23  1  0  0  0  0
 22 44  1  0  0  0  0
 22 45  1  0  0  0  0
 23 46  1  0  0  0  0
 24 27  1  0  0  0  0
 24 48  1  0  0  0  0
 24 49  1  0  0  0  0
 25 28  1  0  0  0  0
 25 50  1  0  0  0  0
 25 51  1  0  0  0  0
 26 29  2  0  0  0  0
 26 30  1  0  0  0  0
 27 52  1  0  0  0  0
 27 53  1  0  0  0  0
 27 54  1  0  0  0  0
 28 55  1  0  0  0  0
 28 56  1  0  0  0  0
 28 57  1  0  0  0  0
 29 31  1  0  0  0  0
 30 32  2  0  0  0  0
 31 33  2  0  0  0  0
 31 58  1  0  0  0  0
 32 33  1  0  0  0  0
 32 59  1  0  0  0  0
 33 60  1  0  0  0  0
M  END
> <PUBCHEM_COMPOUND_CID>
9869943

> <PUBCHEM_COMPOUND_CANONICALIZED>
1

> <PUBCHEM_CACTVS_COMPLEXITY>
760

> <PUBCHEM_CACTVS_HBOND_ACCEPTOR>
4

> <PUBCHEM_CACTVS_HBOND_DONOR>
2

> <PUBCHEM_CACTVS_ROTATABLE_BOND>
7

> <PUBCHEM_CACTVS_SUBSKEYS>
AAADceB7oAAGAAAAAAAAAAAAAAAAAWAAAAAwYIAAAAAAAFiB9AAAHgIQAAAADArBniQz0LfMEACoAyVydACCgC0lF6AJ2CE4dtiIaLrB35HUIYholALIyWcciICOiAAAQACSADAQAACAASQAYAAAAAAAAA==

> <PUBCHEM_IUPAC_OPENEYE_NAME>
2-(2,6-dichloroanilino)-7-[(E)-3-(diethylamino)prop-1-enyl]-1,6-dimethyl-8H-imidazo[4,5-h]isoquinolin-9-one

> <PUBCHEM_IUPAC_CAS_NAME>
2-(2,6-dichloroanilino)-7-[(E)-3-(diethylamino)prop-1-enyl]-1,6-dimethyl-8H-imidazo[4,5-h]isoquinolin-9-one

> <PUBCHEM_IUPAC_NAME_MARKUP>
2-(2,6-dichloroanilino)-7-[(<I>E</I>)-3-(diethylamino)prop-1-enyl]-1,6-dimethyl-8<I>H</I>-imidazo[4,5-h]isoquinolin-9-one

> <PUBCHEM_IUPAC_NAME>
2-(2,6-dichloroanilino)-7-[(E)-3-(diethylamino)prop-1-enyl]-1,6-dimethyl-8H-imidazo[4,5-h]isoquinolin-9-one

> <PUBCHEM_IUPAC_SYSTEMATIC_NAME>
2-[[2,6-bis(chloranyl)phenyl]amino]-7-[(E)-3-(diethylamino)prop-1-enyl]-1,6-dimethyl-8H-imidazo[4,5-h]isoquinolin-9-one

> <PUBCHEM_IUPAC_TRADITIONAL_NAME>
2-(2,6-dichloroanilino)-7-[(E)-3-(diethylamino)prop-1-enyl]-1,6-dimethyl-8H-imidaz[4,5-h]isoquinolin-9-one

> <PUBCHEM_IUPAC_INCHI>
InChI=1S/C25H27Cl2N5O/c1-5-32(6-2)14-8-11-19-15(3)16-12-13-20-23(21(16)24(33)28-19)31(4)25(29-20)30-22-17(26)9-7-10-18(22)27/h7-13H,5-6,14H2,1-4H3,(H,28,33)(H,29,30)/b11-8+

> <PUBCHEM_IUPAC_INCHIKEY>
BPLTVYXMXOYIBK-DHZHZOJOSA-N

> <PUBCHEM_XLOGP3_AA>
5.1

> <PUBCHEM_EXACT_MASS>
483.1592659

> <PUBCHEM_MOLECULAR_FORMULA>
C25H27Cl2N5O

> <PUBCHEM_MOLECULAR_WEIGHT>
484.4

> <PUBCHEM_SMILES>
CCN(CC)C/C=C/C1=C(C2=C(C3=C(C=C2)N=C(N3C)NC4=C(C=CC=C4Cl)Cl)C(=O)N1)C

> <PUBCHEM_OPENEYE_CAN_SMILES>
CCN(CC)CC=CC1=C(C2=C(C3=C(C=C2)N=C(N3C)NC4=C(C=CC=C4Cl)Cl)C(=O)N1)C

> <PUBCHEM_OPENEYE_ISO_SMILES>
CCN(CC)C/C=C/C1=C(C2=C(C3=C(C=C2)N=C(N3C)NC4=C(C=CC=C4Cl)Cl)C(=O)N1)C

> <PUBCHEM_CACTVS_TPSA>
62.2

> <PUBCHEM_MONOISOTOPIC_WEIGHT>
483.1592659

> <PUBCHEM_TOTAL_CHARGE>
0

> <PUBCHEM_HEAVY_ATOM_COUNT>
33

> <PUBCHEM_ATOM_DEF_STEREO_COUNT>
0

> <PUBCHEM_ATOM_UDEF_STEREO_COUNT>
0

> <PUBCHEM_BOND_DEF_STEREO_COUNT>
1

> <PUBCHEM_BOND_UDEF_STEREO_COUNT>
0

> <PUBCHEM_ISOTOPIC_ATOM_COUNT>
0

> <PUBCHEM_COMPONENT_COUNT>
1

> <PUBCHEM_CACTVS_TAUTO_COUNT>
-1

> <PUBCHEM_COORDINATE_TYPE>
1
5
255

> <PUBCHEM_BONDANNOTATIONS>
10  11  8
10  15  8
11  13  8
11  16  8
12  18  8
13  14  8
16  18  8
26  29  8
26  30  8
29  31  8
30  32  8
31  33  8
32  33  8
4  17  8
4  9  8
5  14  8
5  15  8
6  12  8
6  17  8
9  10  8
9  12  8

$$$$
