24859013
  -OEChem-03202503192D

 34 36  0     0  0  0  0  0  0999 V2000
    4.0000   -3.2822    0.0000 F   0  0  0  0  0  0  0  0  0  0  0  0
    3.0000   -4.2822    0.0000 F   0  0  0  0  0  0  0  0  0  0  0  0
    2.0000   -3.2822    0.0000 F   0  0  0  0  0  0  0  0  0  0  0  0
    6.4803    0.7724    0.0000 O   0  0  0  0  0  0  0  0  0  0  0  0
    4.7484    0.7524    0.0000 N   0  0  0  0  0  0  0  0  0  0  0  0
    4.7600   -2.3169    0.0000 N   0  0  0  0  0  0  0  0  0  0  0  0
    5.5970    2.2623    0.0000 N   0  0  0  0  0  0  0  0  0  0  0  0
    6.4456    3.7722    0.0000 N   0  0  0  0  0  0  0  0  0  0  0  0
    8.1892    2.7923    0.0000 N   0  0  0  0  0  0  0  0  0  0  0  0
    3.8660   -0.7822    0.0000 C   0  0  0  0  0  0  0  0  0  0  0  0
    3.8660   -1.7822    0.0000 C   0  0  0  0  0  0  0  0  0  0  0  0
    4.7600   -0.2475    0.0000 C   0  0  0  0  0  0  0  0  0  0  0  0
    3.0000   -2.2822    0.0000 C   0  0  0  0  0  0  0  0  0  0  0  0
    3.0000   -0.2822    0.0000 C   0  0  0  0  0  0  0  0  0  0  0  0
    2.1340   -1.7822    0.0000 C   0  0  0  0  0  0  0  0  0  0  0  0
    5.6660   -0.7614    0.0000 C   0  0  0  0  0  0  0  0  0  0  0  0
    2.1340   -0.7822    0.0000 C   0  0  0  0  0  0  0  0  0  0  0  0
    3.0000   -3.2822    0.0000 C   0  0  0  0  0  0  0  0  0  0  0  0
    5.6660   -1.8030    0.0000 C   0  0  0  0  0  0  0  0  0  0  0  0
    5.6086    1.2624    0.0000 C   0  0  0  0  0  0  0  0  0  0  0  0
    6.4572    2.7723    0.0000 C   0  0  0  0  0  0  0  0  0  0  0  0
    7.3290    2.2823    0.0000 C   0  0  0  0  0  0  0  0  0  0  0  0
    7.3058    4.2822    0.0000 C   0  0  0  0  0  0  0  0  0  0  0  0
    8.1776    3.7922    0.0000 C   0  0  0  0  0  0  0  0  0  0  0  0
    3.0000    0.3378    0.0000 H   0  0  0  0  0  0  0  0  0  0  0  0
    1.5970   -2.0922    0.0000 H   0  0  0  0  0  0  0  0  0  0  0  0
    6.2018   -0.4493    0.0000 H   0  0  0  0  0  0  0  0  0  0  0  0
    1.5970   -0.4722    0.0000 H   0  0  0  0  0  0  0  0  0  0  0  0
    4.2079    1.0562    0.0000 H   0  0  0  0  0  0  0  0  0  0  0  0
    6.2018   -2.1151    0.0000 H   0  0  0  0  0  0  0  0  0  0  0  0
    5.0565    2.5661    0.0000 H   0  0  0  0  0  0  0  0  0  0  0  0
    7.3361    1.6624    0.0000 H   0  0  0  0  0  0  0  0  0  0  0  0
    7.2987    4.9022    0.0000 H   0  0  0  0  0  0  0  0  0  0  0  0
    8.7109    4.1084    0.0000 H   0  0  0  0  0  0  0  0  0  0  0  0
  1 18  1  0  0  0  0
  2 18  1  0  0  0  0
  3 18  1  0  0  0  0
  4 20  2  0  0  0  0
  5 12  1  0  0  0  0
  5 20  1  0  0  0  0
  5 29  1  0  0  0  0
  6 11  2  0  0  0  0
  6 19  1  0  0  0  0
  7 20  1  0  0  0  0
  7 21  1  0  0  0  0
  7 31  1  0  0  0  0
  8 21  2  0  0  0  0
  8 23  1  0  0  0  0
  9 22  2  0  0  0  0
  9 24  1  0  0  0  0
 10 11  1  0  0  0  0
 10 12  2  0  0  0  0
 10 14  1  0  0  0  0
 11 13  1  0  0  0  0
 12 16  1  0  0  0  0
 13 15  2  0  0  0  0
 13 18  1  0  0  0  0
 14 17  2  0  0  0  0
 14 25  1  0  0  0  0
 15 17  1  0  0  0  0
 15 26  1  0  0  0  0
 16 19  2  0  0  0  0
 16 27  1  0  0  0  0
 17 28  1  0  0  0  0
 19 30  1  0  0  0  0
 21 22  1  0  0  0  0
 22 32  1  0  0  0  0
 23 24  2  0  0  0  0
 23 33  1  0  0  0  0
 24 34  1  0  0  0  0
M  END
> <PUBCHEM_COMPOUND_CID>
24859013

> <PUBCHEM_COMPOUND_CANONICALIZED>
1

> <PUBCHEM_CACTVS_COMPLEXITY>
447

> <PUBCHEM_CACTVS_HBOND_ACCEPTOR>
7

> <PUBCHEM_CACTVS_HBOND_DONOR>
2

> <PUBCHEM_CACTVS_ROTATABLE_BOND>
2

> <PUBCHEM_CACTVS_SUBSKEYS>
AAADccBzoYAAAAAAAAAAAAAAAAAAAAAAAAA8WIAAAAAAAACx/AAAHwAQAAAADAjBHhQ98PLIEACoAzZndACCgC0xEiAJ2CA4dJiIYOLA0dGUJAholQLIyCcQgMAOAAACAAACAAAAAAQAAAQAAAAAAAAAAA==

> <PUBCHEM_IUPAC_OPENEYE_NAME>
1-pyrazin-2-yl-3-[8-(trifluoromethyl)-4-quinolyl]urea

> <PUBCHEM_IUPAC_CAS_NAME>
1-(2-pyrazinyl)-3-[8-(trifluoromethyl)-4-quinolinyl]urea

> <PUBCHEM_IUPAC_NAME_MARKUP>
1-pyrazin-2-yl-3-[8-(trifluoromethyl)quinolin-4-yl]urea

> <PUBCHEM_IUPAC_NAME>
1-pyrazin-2-yl-3-[8-(trifluoromethyl)quinolin-4-yl]urea

> <PUBCHEM_IUPAC_SYSTEMATIC_NAME>
1-pyrazin-2-yl-3-[8-(trifluoromethyl)quinolin-4-yl]urea

> <PUBCHEM_IUPAC_TRADITIONAL_NAME>
1-pyrazin-2-yl-3-[8-(trifluoromethyl)-4-quinolyl]urea

> <PUBCHEM_IUPAC_INCHI>
InChI=1S/C15H10F3N5O/c16-15(17,18)10-3-1-2-9-11(4-5-21-13(9)10)22-14(24)23-12-8-19-6-7-20-12/h1-8H,(H2,20,21,22,23,24)

> <PUBCHEM_IUPAC_INCHIKEY>
FGLPGUCHBHILNS-UHFFFAOYSA-N

> <PUBCHEM_XLOGP3_AA>
1.8

> <PUBCHEM_EXACT_MASS>
333.08374445

> <PUBCHEM_MOLECULAR_FORMULA>
C15H10F3N5O

> <PUBCHEM_MOLECULAR_WEIGHT>
333.27

> <PUBCHEM_SMILES>
C1=CC2=C(C=CN=C2C(=C1)C(F)(F)F)NC(=O)NC3=NC=CN=C3

> <PUBCHEM_OPENEYE_CAN_SMILES>
C1=CC2=C(C=CN=C2C(=C1)C(F)(F)F)NC(=O)NC3=NC=CN=C3

> <PUBCHEM_OPENEYE_ISO_SMILES>
C1=CC2=C(C=CN=C2C(=C1)C(F)(F)F)NC(=O)NC3=NC=CN=C3

> <PUBCHEM_CACTVS_TPSA>
79.8

> <PUBCHEM_MONOISOTOPIC_WEIGHT>
333.08374445

> <PUBCHEM_TOTAL_CHARGE>
0

> <PUBCHEM_HEAVY_ATOM_COUNT>
24

> <PUBCHEM_ATOM_DEF_STEREO_COUNT>
0

> <PUBCHEM_ATOM_UDEF_STEREO_COUNT>
0

> <PUBCHEM_BOND_DEF_STEREO_COUNT>
0

> <PUBCHEM_BOND_UDEF_STEREO_COUNT>
0

> <PUBCHEM_ISOTOPIC_ATOM_COUNT>
0

> <PUBCHEM_COMPONENT_COUNT>
1

> <PUBCHEM_CACTVS_TAUTO_COUNT>
-1

> <PUBCHEM_COORDINATE_TYPE>
1
5
255

> <PUBCHEM_BONDANNOTATIONS>
10  11  8
10  12  8
10  14  8
11  13  8
12  16  8
13  15  8
14  17  8
15  17  8
16  19  8
21  22  8
23  24  8
6  11  8
6  19  8
8  21  8
8  23  8
9  22  8
9  24  8

$$$$
