49830291
  -OEChem-03202501372D

 40 43  0     0  0  0  0  0  0999 V2000
    2.6200    2.9291    0.0000 O   0  0  0  0  0  0  0  0  0  0  0  0
    4.1200    0.3310    0.0000 N   0  0  0  0  0  0  0  0  0  0  0  0
    3.7540   -1.0350    0.0000 N   0  0  0  0  0  0  0  0  0  0  0  0
    6.4322   -2.3398    0.0000 N   0  0  0  0  0  0  0  0  0  0  0  0
    4.6200   -2.5350    0.0000 N   0  0  0  0  0  0  0  0  0  0  0  0
    3.1200    2.0630    0.0000 C   0  0  0  0  0  0  0  0  0  0  0  0
    2.6200    1.1970    0.0000 C   0  0  0  0  0  0  0  0  0  0  0  0
    4.1200    2.0630    0.0000 C   0  0  0  0  0  0  0  0  0  0  0  0
    3.1200    0.3310    0.0000 C   0  0  0  0  0  0  0  0  0  0  0  0
    4.6200    1.1970    0.0000 C   0  0  0  0  0  0  0  0  0  0  0  0
    4.6200   -0.5350    0.0000 C   0  0  0  0  0  0  0  0  0  0  0  0
    5.4860   -1.0350    0.0000 C   0  0  0  0  0  0  0  0  0  0  0  0
    6.4322   -0.7303    0.0000 C   0  0  0  0  0  0  0  0  0  0  0  0
    5.4860   -2.0350    0.0000 C   0  0  0  0  0  0  0  0  0  0  0  0
    7.0158   -1.5350    0.0000 C   0  0  0  0  0  0  0  0  0  0  0  0
    7.1766   -0.0624    0.0000 C   0  0  0  0  0  0  0  0  0  0  0  0
    3.7540   -2.0350    0.0000 C   0  0  0  0  0  0  0  0  0  0  0  0
    8.1271   -0.3731    0.0000 C   0  0  0  0  0  0  0  0  0  0  0  0
    6.9703    0.9161    0.0000 C   0  0  0  0  0  0  0  0  0  0  0  0
    8.8714    0.2947    0.0000 C   0  0  0  0  0  0  0  0  0  0  0  0
    7.7146    1.5839    0.0000 C   0  0  0  0  0  0  0  0  0  0  0  0
    8.6652    1.2732    0.0000 C   0  0  0  0  0  0  0  0  0  0  0  0
    2.5000    2.0630    0.0000 H   0  0  0  0  0  0  0  0  0  0  0  0
    2.1450    1.5956    0.0000 H   0  0  0  0  0  0  0  0  0  0  0  0
    2.1450    0.7985    0.0000 H   0  0  0  0  0  0  0  0  0  0  0  0
    4.7026    2.2751    0.0000 H   0  0  0  0  0  0  0  0  0  0  0  0
    4.0123    2.6736    0.0000 H   0  0  0  0  0  0  0  0  0  0  0  0
    2.5374    0.1190    0.0000 H   0  0  0  0  0  0  0  0  0  0  0  0
    3.2277   -0.2796    0.0000 H   0  0  0  0  0  0  0  0  0  0  0  0
    5.0950    0.7985    0.0000 H   0  0  0  0  0  0  0  0  0  0  0  0
    5.0950    1.5956    0.0000 H   0  0  0  0  0  0  0  0  0  0  0  0
    2.0000    2.9291    0.0000 H   0  0  0  0  0  0  0  0  0  0  0  0
    7.6358   -1.5350    0.0000 H   0  0  0  0  0  0  0  0  0  0  0  0
    6.6249   -2.9291    0.0000 H   0  0  0  0  0  0  0  0  0  0  0  0
    3.2170   -2.3450    0.0000 H   0  0  0  0  0  0  0  0  0  0  0  0
    8.2549   -0.9798    0.0000 H   0  0  0  0  0  0  0  0  0  0  0  0
    6.3810    1.1087    0.0000 H   0  0  0  0  0  0  0  0  0  0  0  0
    9.4607    0.1021    0.0000 H   0  0  0  0  0  0  0  0  0  0  0  0
    7.5868    2.1906    0.0000 H   0  0  0  0  0  0  0  0  0  0  0  0
    9.1266    1.6873    0.0000 H   0  0  0  0  0  0  0  0  0  0  0  0
  1  6  1  0  0  0  0
  1 32  1  0  0  0  0
  2  9  1  0  0  0  0
  2 10  1  0  0  0  0
  2 11  1  0  0  0  0
  3 11  2  0  0  0  0
  3 17  1  0  0  0  0
  4 14  1  0  0  0  0
  4 15  1  0  0  0  0
  4 34  1  0  0  0  0
  5 14  1  0  0  0  0
  5 17  2  0  0  0  0
  6  7  1  0  0  0  0
  6  8  1  0  0  0  0
  6 23  1  0  0  0  0
  7  9  1  0  0  0  0
  7 24  1  0  0  0  0
  7 25  1  0  0  0  0
  8 10  1  0  0  0  0
  8 26  1  0  0  0  0
  8 27  1  0  0  0  0
  9 28  1  0  0  0  0
  9 29  1  0  0  0  0
 10 30  1  0  0  0  0
 10 31  1  0  0  0  0
 11 12  1  0  0  0  0
 12 13  1  0  0  0  0
 12 14  2  0  0  0  0
 13 15  2  0  0  0  0
 13 16  1  0  0  0  0
 15 33  1  0  0  0  0
 16 18  2  0  0  0  0
 16 19  1  0  0  0  0
 17 35  1  0  0  0  0
 18 20  1  0  0  0  0
 18 36  1  0  0  0  0
 19 21  2  0  0  0  0
 19 37  1  0  0  0  0
 20 22  2  0  0  0  0
 20 38  1  0  0  0  0
 21 22  1  0  0  0  0
 21 39  1  0  0  0  0
 22 40  1  0  0  0  0
M  END
> <PUBCHEM_COMPOUND_CID>
49830291

> <PUBCHEM_COMPOUND_CANONICALIZED>
1

> <PUBCHEM_CACTVS_COMPLEXITY>
366

> <PUBCHEM_CACTVS_HBOND_ACCEPTOR>
4

> <PUBCHEM_CACTVS_HBOND_DONOR>
2

> <PUBCHEM_CACTVS_ROTATABLE_BOND>
2

> <PUBCHEM_CACTVS_SUBSKEYS>
AAADceB7oAAAAAAAAAAAAAAAAAAAAWAAAAA8WIAAAAAAAFgB/AAAHgAQCAAADBThmwY9sN/JkgCgAjJnZACCgCmxAKAJ2aAoRJiIOGLA2dGEZAhqgALIyCcQgMAOgAAAAAAAAAAAAAAAAAAAAAAAAAAAAA==

> <PUBCHEM_IUPAC_OPENEYE_NAME>
1-(5-phenyl-7H-pyrrolo[2,3-d]pyrimidin-4-yl)piperidin-4-ol

> <PUBCHEM_IUPAC_CAS_NAME>
1-(5-phenyl-7H-pyrrolo[2,3-d]pyrimidin-4-yl)-4-piperidinol

> <PUBCHEM_IUPAC_NAME_MARKUP>
1-(5-phenyl-7<I>H</I>-pyrrolo[2,3-d]pyrimidin-4-yl)piperidin-4-ol

> <PUBCHEM_IUPAC_NAME>
1-(5-phenyl-7H-pyrrolo[2,3-d]pyrimidin-4-yl)piperidin-4-ol

> <PUBCHEM_IUPAC_SYSTEMATIC_NAME>
1-(5-phenyl-7H-pyrrolo[2,3-d]pyrimidin-4-yl)piperidin-4-ol

> <PUBCHEM_IUPAC_TRADITIONAL_NAME>
1-(5-phenyl-7H-pyrrolo[2,3-d]pyrimidin-4-yl)piperidin-4-ol

> <PUBCHEM_IUPAC_INCHI>
InChI=1S/C17H18N4O/c22-13-6-8-21(9-7-13)17-15-14(12-4-2-1-3-5-12)10-18-16(15)19-11-20-17/h1-5,10-11,13,22H,6-9H2,(H,18,19,20)

> <PUBCHEM_IUPAC_INCHIKEY>
FONINLXADYUZFI-UHFFFAOYSA-N

> <PUBCHEM_XLOGP3_AA>
2.6

> <PUBCHEM_EXACT_MASS>
294.14806121

> <PUBCHEM_MOLECULAR_FORMULA>
C17H18N4O

> <PUBCHEM_MOLECULAR_WEIGHT>
294.35

> <PUBCHEM_SMILES>
C1CN(CCC1O)C2=NC=NC3=C2C(=CN3)C4=CC=CC=C4

> <PUBCHEM_OPENEYE_CAN_SMILES>
C1CN(CCC1O)C2=NC=NC3=C2C(=CN3)C4=CC=CC=C4

> <PUBCHEM_OPENEYE_ISO_SMILES>
C1CN(CCC1O)C2=NC=NC3=C2C(=CN3)C4=CC=CC=C4

> <PUBCHEM_CACTVS_TPSA>
65

> <PUBCHEM_MONOISOTOPIC_WEIGHT>
294.14806121

> <PUBCHEM_TOTAL_CHARGE>
0

> <PUBCHEM_HEAVY_ATOM_COUNT>
22

> <PUBCHEM_ATOM_DEF_STEREO_COUNT>
0

> <PUBCHEM_ATOM_UDEF_STEREO_COUNT>
0

> <PUBCHEM_BOND_DEF_STEREO_COUNT>
0

> <PUBCHEM_BOND_UDEF_STEREO_COUNT>
0

> <PUBCHEM_ISOTOPIC_ATOM_COUNT>
0

> <PUBCHEM_COMPONENT_COUNT>
1

> <PUBCHEM_CACTVS_TAUTO_COUNT>
-1

> <PUBCHEM_COORDINATE_TYPE>
1
5
255

> <PUBCHEM_BONDANNOTATIONS>
11  12  8
12  13  8
12  14  8
13  15  8
16  18  8
16  19  8
18  20  8
19  21  8
20  22  8
21  22  8
3  11  8
3  17  8
4  14  8
4  15  8
5  14  8
5  17  8

$$$$
