25205762
  -OEChem-03202503212D

 37 39  0     0  0  0  0  0  0999 V2000
    2.0249    1.8045    0.0000 O   0  0  0  0  0  0  0  0  0  0  0  0
    3.7320    3.5116    0.0000 O   0  0  0  0  0  0  0  0  0  0  0  0
    3.7320    0.0974    0.0000 N   0  0  0  0  0  0  0  0  0  0  0  0
    5.4392    1.8045    0.0000 N   0  0  0  0  0  0  0  0  0  0  0  0
    6.9392    4.4026    0.0000 N   0  0  0  0  0  0  0  0  0  0  0  0
    3.7320    1.0974    0.0000 C   0  0  0  0  0  0  0  0  0  0  0  0
    4.4392    1.8045    0.0000 C   0  0  0  0  0  0  0  0  0  0  0  0
    2.8660   -0.4026    0.0000 C   0  0  0  0  0  0  0  0  0  0  0  0
    3.0249    1.8045    0.0000 C   0  0  0  0  0  0  0  0  0  0  0  0
    3.7320    2.5116    0.0000 C   0  0  0  0  0  0  0  0  0  0  0  0
    2.8660   -1.4026    0.0000 C   0  0  0  0  0  0  0  0  0  0  0  0
    3.7320   -1.9026    0.0000 C   0  0  0  0  0  0  0  0  0  0  0  0
    2.0000   -1.9026    0.0000 C   0  0  0  0  0  0  0  0  0  0  0  0
    5.9392    2.6705    0.0000 C   0  0  0  0  0  0  0  0  0  0  0  0
    2.8660   -3.4026    0.0000 C   0  0  0  0  0  0  0  0  0  0  0  0
    3.7320   -2.9026    0.0000 C   0  0  0  0  0  0  0  0  0  0  0  0
    2.0000   -2.9026    0.0000 C   0  0  0  0  0  0  0  0  0  0  0  0
    6.9392    2.6705    0.0000 C   0  0  0  0  0  0  0  0  0  0  0  0
    5.4392    3.5366    0.0000 C   0  0  0  0  0  0  0  0  0  0  0  0
    2.8660   -4.4026    0.0000 C   0  0  0  0  0  0  0  0  0  0  0  0
    7.4392    3.5366    0.0000 C   0  0  0  0  0  0  0  0  0  0  0  0
    5.9392    4.4026    0.0000 C   0  0  0  0  0  0  0  0  0  0  0  0
    2.6540    0.1800    0.0000 H   0  0  0  0  0  0  0  0  0  0  0  0
    2.2554   -0.5103    0.0000 H   0  0  0  0  0  0  0  0  0  0  0  0
    4.2690   -0.2126    0.0000 H   0  0  0  0  0  0  0  0  0  0  0  0
    5.7492    1.2676    0.0000 H   0  0  0  0  0  0  0  0  0  0  0  0
    4.2690   -1.5926    0.0000 H   0  0  0  0  0  0  0  0  0  0  0  0
    1.4631   -1.5926    0.0000 H   0  0  0  0  0  0  0  0  0  0  0  0
    4.2690   -3.2126    0.0000 H   0  0  0  0  0  0  0  0  0  0  0  0
    1.4631   -3.2126    0.0000 H   0  0  0  0  0  0  0  0  0  0  0  0
    7.2492    2.1336    0.0000 H   0  0  0  0  0  0  0  0  0  0  0  0
    4.8192    3.5366    0.0000 H   0  0  0  0  0  0  0  0  0  0  0  0
    2.2460   -4.4026    0.0000 H   0  0  0  0  0  0  0  0  0  0  0  0
    2.8660   -5.0226    0.0000 H   0  0  0  0  0  0  0  0  0  0  0  0
    3.4860   -4.4026    0.0000 H   0  0  0  0  0  0  0  0  0  0  0  0
    8.0592    3.5366    0.0000 H   0  0  0  0  0  0  0  0  0  0  0  0
    5.6292    4.9395    0.0000 H   0  0  0  0  0  0  0  0  0  0  0  0
  1  9  2  0  0  0  0
  2 10  2  0  0  0  0
  3  6  1  0  0  0  0
  3  8  1  0  0  0  0
  3 25  1  0  0  0  0
  4  7  1  0  0  0  0
  4 14  1  0  0  0  0
  4 26  1  0  0  0  0
  5 21  2  0  0  0  0
  5 22  1  0  0  0  0
  6  7  2  0  0  0  0
  6  9  1  0  0  0  0
  7 10  1  0  0  0  0
  8 11  1  0  0  0  0
  8 23  1  0  0  0  0
  8 24  1  0  0  0  0
  9 10  1  0  0  0  0
 11 12  2  0  0  0  0
 11 13  1  0  0  0  0
 12 16  1  0  0  0  0
 12 27  1  0  0  0  0
 13 17  2  0  0  0  0
 13 28  1  0  0  0  0
 14 18  2  0  0  0  0
 14 19  1  0  0  0  0
 15 16  2  0  0  0  0
 15 17  1  0  0  0  0
 15 20  1  0  0  0  0
 16 29  1  0  0  0  0
 17 30  1  0  0  0  0
 18 21  1  0  0  0  0
 18 31  1  0  0  0  0
 19 22  2  0  0  0  0
 19 32  1  0  0  0  0
 20 33  1  0  0  0  0
 20 34  1  0  0  0  0
 20 35  1  0  0  0  0
 21 36  1  0  0  0  0
 22 37  1  0  0  0  0
M  END
> <PUBCHEM_COMPOUND_CID>
25205762

> <PUBCHEM_COMPOUND_CANONICALIZED>
1

> <PUBCHEM_CACTVS_COMPLEXITY>
472

> <PUBCHEM_CACTVS_HBOND_ACCEPTOR>
5

> <PUBCHEM_CACTVS_HBOND_DONOR>
2

> <PUBCHEM_CACTVS_ROTATABLE_BOND>
5

> <PUBCHEM_CACTVS_SUBSKEYS>
AAADccB7MAAAAAAAAAAAAAAAAABAAAAAAAA8QAAAAAAAAAABwAAAHgAQAAAADAzBmgQ+wJLIEACoArR3RACCgCAxAiAI2KG4ZNgIIGrA0fGEJAhgkADIyUcQgAAOQAAAAAAAAACAAAAAAAAAAAAAAAAAAA==

> <PUBCHEM_IUPAC_OPENEYE_NAME>
3-(p-tolylmethylamino)-4-(4-pyridylamino)cyclobut-3-ene-1,2-dione

> <PUBCHEM_IUPAC_CAS_NAME>
3-[(4-methylphenyl)methylamino]-4-(pyridin-4-ylamino)cyclobut-3-ene-1,2-dione

> <PUBCHEM_IUPAC_NAME_MARKUP>
3-[(4-methylphenyl)methylamino]-4-(pyridin-4-ylamino)cyclobut-3-ene-1,2-dione

> <PUBCHEM_IUPAC_NAME>
3-[(4-methylphenyl)methylamino]-4-(pyridin-4-ylamino)cyclobut-3-ene-1,2-dione

> <PUBCHEM_IUPAC_SYSTEMATIC_NAME>
3-[(4-methylphenyl)methylamino]-4-(pyridin-4-ylamino)cyclobut-3-ene-1,2-dione

> <PUBCHEM_IUPAC_TRADITIONAL_NAME>
3-[(4-methylbenzyl)amino]-4-(4-pyridylamino)cyclobut-3-ene-1,2-quinone

> <PUBCHEM_IUPAC_INCHI>
InChI=1S/C17H15N3O2/c1-11-2-4-12(5-3-11)10-19-14-15(17(22)16(14)21)20-13-6-8-18-9-7-13/h2-9,19H,10H2,1H3,(H,18,20)

> <PUBCHEM_IUPAC_INCHIKEY>
ASNQMAVHHGGQRB-UHFFFAOYSA-N

> <PUBCHEM_XLOGP3_AA>
2.3

> <PUBCHEM_EXACT_MASS>
293.116426730

> <PUBCHEM_MOLECULAR_FORMULA>
C17H15N3O2

> <PUBCHEM_MOLECULAR_WEIGHT>
293.32

> <PUBCHEM_SMILES>
CC1=CC=C(C=C1)CNC2=C(C(=O)C2=O)NC3=CC=NC=C3

> <PUBCHEM_OPENEYE_CAN_SMILES>
CC1=CC=C(C=C1)CNC2=C(C(=O)C2=O)NC3=CC=NC=C3

> <PUBCHEM_OPENEYE_ISO_SMILES>
CC1=CC=C(C=C1)CNC2=C(C(=O)C2=O)NC3=CC=NC=C3

> <PUBCHEM_CACTVS_TPSA>
71.1

> <PUBCHEM_MONOISOTOPIC_WEIGHT>
293.116426730

> <PUBCHEM_TOTAL_CHARGE>
0

> <PUBCHEM_HEAVY_ATOM_COUNT>
22

> <PUBCHEM_ATOM_DEF_STEREO_COUNT>
0

> <PUBCHEM_ATOM_UDEF_STEREO_COUNT>
0

> <PUBCHEM_BOND_DEF_STEREO_COUNT>
0

> <PUBCHEM_BOND_UDEF_STEREO_COUNT>
0

> <PUBCHEM_ISOTOPIC_ATOM_COUNT>
0

> <PUBCHEM_COMPONENT_COUNT>
1

> <PUBCHEM_CACTVS_TAUTO_COUNT>
-1

> <PUBCHEM_COORDINATE_TYPE>
1
5
255

> <PUBCHEM_BONDANNOTATIONS>
11  12  8
11  13  8
12  16  8
13  17  8
14  18  8
14  19  8
15  16  8
15  17  8
18  21  8
19  22  8
5  21  8
5  22  8
6  7  8
6  9  8
7  10  8
9  10  8

$$$$
