135402910
  -OEChem-03202505492D

 31 33  0     0  0  0  0  0  0999 V2000
    4.2086   -0.9899    0.0000 Cl  0  0  0  0  0  0  0  0  0  0  0  0
    7.5013    0.0862    0.0000 Cl  0  0  0  0  0  0  0  0  0  0  0  0
    6.7870   -3.3034    0.0000 Cl  0  0  0  0  0  0  0  0  0  0  0  0
    5.8550    3.0587    0.0000 S   0  0  0  0  0  0  0  0  0  0  0  0
    3.7320    3.3034    0.0000 O   0  0  0  0  0  0  0  0  0  0  0  0
    5.5443    0.4987    0.0000 N   0  0  0  0  0  0  0  0  0  0  0  0
    6.1279    1.3034    0.0000 N   0  0  0  0  0  0  0  0  0  0  0  0
    3.7320    0.3034    0.0000 N   0  0  0  0  0  0  0  0  0  0  0  0
    2.8660    1.8034    0.0000 N   0  0  0  0  0  0  0  0  0  0  0  0
    4.5981    0.8034    0.0000 C   0  0  0  0  0  0  0  0  0  0  0  0
    4.5981    1.8034    0.0000 C   0  0  0  0  0  0  0  0  0  0  0  0
    5.8550   -0.4518    0.0000 C   0  0  0  0  0  0  0  0  0  0  0  0
    5.5443    2.1081    0.0000 C   0  0  0  0  0  0  0  0  0  0  0  0
    3.7320    2.3034    0.0000 C   0  0  0  0  0  0  0  0  0  0  0  0
    2.8660    0.8034    0.0000 C   0  0  0  0  0  0  0  0  0  0  0  0
    5.1871   -1.1962    0.0000 C   0  0  0  0  0  0  0  0  0  0  0  0
    6.8335   -0.6581    0.0000 C   0  0  0  0  0  0  0  0  0  0  0  0
    2.0000    0.3034    0.0000 C   0  0  0  0  0  0  0  0  0  0  0  0
    5.4978   -2.1467    0.0000 C   0  0  0  0  0  0  0  0  0  0  0  0
    7.1441   -1.6086    0.0000 C   0  0  0  0  0  0  0  0  0  0  0  0
    6.4763   -2.3529    0.0000 C   0  0  0  0  0  0  0  0  0  0  0  0
    6.8335    3.2649    0.0000 C   0  0  0  0  0  0  0  0  0  0  0  0
    2.3291    2.1134    0.0000 H   0  0  0  0  0  0  0  0  0  0  0  0
    1.6900    0.8403    0.0000 H   0  0  0  0  0  0  0  0  0  0  0  0
    1.4631   -0.0066    0.0000 H   0  0  0  0  0  0  0  0  0  0  0  0
    2.3100   -0.2335    0.0000 H   0  0  0  0  0  0  0  0  0  0  0  0
    5.0837   -2.6081    0.0000 H   0  0  0  0  0  0  0  0  0  0  0  0
    7.7508   -1.7364    0.0000 H   0  0  0  0  0  0  0  0  0  0  0  0
    6.9613    2.6582    0.0000 H   0  0  0  0  0  0  0  0  0  0  0  0
    7.4401    3.3927    0.0000 H   0  0  0  0  0  0  0  0  0  0  0  0
    6.7056    3.8716    0.0000 H   0  0  0  0  0  0  0  0  0  0  0  0
  1 16  1  0  0  0  0
  2 17  1  0  0  0  0
  3 21  1  0  0  0  0
  4 13  1  0  0  0  0
  4 22  1  0  0  0  0
  5 14  2  0  0  0  0
  6  7  1  0  0  0  0
  6 10  1  0  0  0  0
  6 12  1  0  0  0  0
  7 13  2  0  0  0  0
  8 10  1  0  0  0  0
  8 15  2  0  0  0  0
  9 14  1  0  0  0  0
  9 15  1  0  0  0  0
  9 23  1  0  0  0  0
 10 11  2  0  0  0  0
 11 13  1  0  0  0  0
 11 14  1  0  0  0  0
 12 16  2  0  0  0  0
 12 17  1  0  0  0  0
 15 18  1  0  0  0  0
 16 19  1  0  0  0  0
 17 20  2  0  0  0  0
 18 24  1  0  0  0  0
 18 25  1  0  0  0  0
 18 26  1  0  0  0  0
 19 21  2  0  0  0  0
 19 27  1  0  0  0  0
 20 21  1  0  0  0  0
 20 28  1  0  0  0  0
 22 29  1  0  0  0  0
 22 30  1  0  0  0  0
 22 31  1  0  0  0  0
M  END
> <PUBCHEM_COMPOUND_CID>
135402910

> <PUBCHEM_COMPOUND_CANONICALIZED>
1

> <PUBCHEM_CACTVS_COMPLEXITY>
482

> <PUBCHEM_CACTVS_HBOND_ACCEPTOR>
4

> <PUBCHEM_CACTVS_HBOND_DONOR>
1

> <PUBCHEM_CACTVS_ROTATABLE_BOND>
2

> <PUBCHEM_CACTVS_SUBSKEYS>
AAADccBzoABGAAAAAAAAAAAAAAAAAWAAAAAwQAAAAAAAAEABwAAAHgYYAAAADAqB2iCz8ZLIAAiqAidydACSBCNlDRAVmDEwRtiIIGrh29HEpIxgnALIyGcQAAAAAABAAACAABAAAIAAAQAAIAAAAAAAAA==

> <PUBCHEM_IUPAC_OPENEYE_NAME>
6-methyl-3-methylsulfanyl-1-(2,4,6-trichlorophenyl)-5H-pyrazolo[3,4-d]pyrimidin-4-one

> <PUBCHEM_IUPAC_CAS_NAME>
6-methyl-3-(methylthio)-1-(2,4,6-trichlorophenyl)-5H-pyrazolo[3,4-d]pyrimidin-4-one

> <PUBCHEM_IUPAC_NAME_MARKUP>
6-methyl-3-methylsulfanyl-1-(2,4,6-trichlorophenyl)-5<I>H</I>-pyrazolo[3,4-d]pyrimidin-4-one

> <PUBCHEM_IUPAC_NAME>
6-methyl-3-methylsulfanyl-1-(2,4,6-trichlorophenyl)-5H-pyrazolo[3,4-d]pyrimidin-4-one

> <PUBCHEM_IUPAC_SYSTEMATIC_NAME>
6-methyl-3-methylsulfanyl-1-[2,4,6-tris(chloranyl)phenyl]-5H-pyrazolo[3,4-d]pyrimidin-4-one

> <PUBCHEM_IUPAC_TRADITIONAL_NAME>
6-methyl-3-(methylthio)-1-(2,4,6-trichlorophenyl)-5H-pyrazolo[3,4-d]pyrimidin-4-one

> <PUBCHEM_IUPAC_INCHI>
InChI=1S/C13H9Cl3N4OS/c1-5-17-11-9(12(21)18-5)13(22-2)19-20(11)10-7(15)3-6(14)4-8(10)16/h3-4H,1-2H3,(H,17,18,21)

> <PUBCHEM_IUPAC_INCHIKEY>
BTSZMJKDZCBEGX-UHFFFAOYSA-N

> <PUBCHEM_XLOGP3_AA>
3.7

> <PUBCHEM_EXACT_MASS>
373.956265

> <PUBCHEM_MOLECULAR_FORMULA>
C13H9Cl3N4OS

> <PUBCHEM_MOLECULAR_WEIGHT>
375.7

> <PUBCHEM_SMILES>
CC1=NC2=C(C(=O)N1)C(=NN2C3=C(C=C(C=C3Cl)Cl)Cl)SC

> <PUBCHEM_OPENEYE_CAN_SMILES>
CC1=NC2=C(C(=O)N1)C(=NN2C3=C(C=C(C=C3Cl)Cl)Cl)SC

> <PUBCHEM_OPENEYE_ISO_SMILES>
CC1=NC2=C(C(=O)N1)C(=NN2C3=C(C=C(C=C3Cl)Cl)Cl)SC

> <PUBCHEM_CACTVS_TPSA>
84.6

> <PUBCHEM_MONOISOTOPIC_WEIGHT>
373.956265

> <PUBCHEM_TOTAL_CHARGE>
0

> <PUBCHEM_HEAVY_ATOM_COUNT>
22

> <PUBCHEM_ATOM_DEF_STEREO_COUNT>
0

> <PUBCHEM_ATOM_UDEF_STEREO_COUNT>
0

> <PUBCHEM_BOND_DEF_STEREO_COUNT>
0

> <PUBCHEM_BOND_UDEF_STEREO_COUNT>
0

> <PUBCHEM_ISOTOPIC_ATOM_COUNT>
0

> <PUBCHEM_COMPONENT_COUNT>
1

> <PUBCHEM_CACTVS_TAUTO_COUNT>
-1

> <PUBCHEM_COORDINATE_TYPE>
1
5
255

> <PUBCHEM_BONDANNOTATIONS>
10  11  8
11  13  8
11  14  8
12  16  8
12  17  8
16  19  8
17  20  8
19  21  8
20  21  8
6  10  8
6  7  8
7  13  8
8  10  8
8  15  8
9  14  8
9  15  8

$$$$
