24905195
  -OEChem-03192523362D

 37 40  0     0  0  0  0  0  0999 V2000
    6.1110    3.5073    0.0000 O   0  0  0  0  0  0  0  0  0  0  0  0
    4.6783   -1.8125    0.0000 N   0  0  0  0  0  0  0  0  0  0  0  0
    5.2619   -1.0077    0.0000 N   0  0  0  0  0  0  0  0  0  0  0  0
    2.8660   -2.0077    0.0000 N   0  0  0  0  0  0  0  0  0  0  0  0
    2.0000   -0.5077    0.0000 N   0  0  0  0  0  0  0  0  0  0  0  0
    2.8660    0.9923    0.0000 N   0  0  0  0  0  0  0  0  0  0  0  0
    4.9889   -2.7630    0.0000 C   0  0  0  0  0  0  0  0  0  0  0  0
    3.7320   -0.5077    0.0000 C   0  0  0  0  0  0  0  0  0  0  0  0
    3.7320   -1.5077    0.0000 C   0  0  0  0  0  0  0  0  0  0  0  0
    4.6783   -0.2030    0.0000 C   0  0  0  0  0  0  0  0  0  0  0  0
    4.9889    0.7475    0.0000 C   0  0  0  0  0  0  0  0  0  0  0  0
    5.9674   -2.9692    0.0000 C   0  0  0  0  0  0  0  0  0  0  0  0
    4.3211   -3.5073    0.0000 C   0  0  0  0  0  0  0  0  0  0  0  0
    2.8660   -0.0077    0.0000 C   0  0  0  0  0  0  0  0  0  0  0  0
    5.9674    0.9537    0.0000 C   0  0  0  0  0  0  0  0  0  0  0  0
    6.2781    1.9042    0.0000 C   0  0  0  0  0  0  0  0  0  0  0  0
    4.3211    1.4918    0.0000 C   0  0  0  0  0  0  0  0  0  0  0  0
    5.6103    2.6486    0.0000 C   0  0  0  0  0  0  0  0  0  0  0  0
    4.6318    2.4423    0.0000 C   0  0  0  0  0  0  0  0  0  0  0  0
    2.0000   -1.5077    0.0000 C   0  0  0  0  0  0  0  0  0  0  0  0
    7.1859    2.3094    0.0000 C   0  0  0  0  0  0  0  0  0  0  0  0
    7.0828    3.2981    0.0000 C   0  0  0  0  0  0  0  0  0  0  0  0
    5.4030   -2.3015    0.0000 H   0  0  0  0  0  0  0  0  0  0  0  0
    5.8396   -3.5759    0.0000 H   0  0  0  0  0  0  0  0  0  0  0  0
    6.5741   -3.0971    0.0000 H   0  0  0  0  0  0  0  0  0  0  0  0
    6.0953   -2.3625    0.0000 H   0  0  0  0  0  0  0  0  0  0  0  0
    3.8596   -3.0932    0.0000 H   0  0  0  0  0  0  0  0  0  0  0  0
    3.9070   -3.9688    0.0000 H   0  0  0  0  0  0  0  0  0  0  0  0
    4.7826   -3.9214    0.0000 H   0  0  0  0  0  0  0  0  0  0  0  0
    6.3815    0.4923    0.0000 H   0  0  0  0  0  0  0  0  0  0  0  0
    3.7144    1.3640    0.0000 H   0  0  0  0  0  0  0  0  0  0  0  0
    4.2177    2.9038    0.0000 H   0  0  0  0  0  0  0  0  0  0  0  0
    1.4631   -1.8177    0.0000 H   0  0  0  0  0  0  0  0  0  0  0  0
    7.7228    1.9994    0.0000 H   0  0  0  0  0  0  0  0  0  0  0  0
    2.3291    1.3023    0.0000 H   0  0  0  0  0  0  0  0  0  0  0  0
    3.4030    1.3023    0.0000 H   0  0  0  0  0  0  0  0  0  0  0  0
    7.5443    3.7122    0.0000 H   0  0  0  0  0  0  0  0  0  0  0  0
  1 18  1  0  0  0  0
  1 22  1  0  0  0  0
  2  3  1  0  0  0  0
  2  7  1  0  0  0  0
  2  9  1  0  0  0  0
  3 10  2  0  0  0  0
  4  9  2  0  0  0  0
  4 20  1  0  0  0  0
  5 14  1  0  0  0  0
  5 20  2  0  0  0  0
  6 14  1  0  0  0  0
  6 35  1  0  0  0  0
  6 36  1  0  0  0  0
  7 12  1  0  0  0  0
  7 13  1  0  0  0  0
  7 23  1  0  0  0  0
  8  9  1  0  0  0  0
  8 10  1  0  0  0  0
  8 14  2  0  0  0  0
 10 11  1  0  0  0  0
 11 15  2  0  0  0  0
 11 17  1  0  0  0  0
 12 24  1  0  0  0  0
 12 25  1  0  0  0  0
 12 26  1  0  0  0  0
 13 27  1  0  0  0  0
 13 28  1  0  0  0  0
 13 29  1  0  0  0  0
 15 16  1  0  0  0  0
 15 30  1  0  0  0  0
 16 18  2  0  0  0  0
 16 21  1  0  0  0  0
 17 19  2  0  0  0  0
 17 31  1  0  0  0  0
 18 19  1  0  0  0  0
 19 32  1  0  0  0  0
 20 33  1  0  0  0  0
 21 22  2  0  0  0  0
 21 34  1  0  0  0  0
 22 37  1  0  0  0  0
M  END
> <PUBCHEM_COMPOUND_CID>
24905195

> <PUBCHEM_COMPOUND_CANONICALIZED>
1

> <PUBCHEM_CACTVS_COMPLEXITY>
406

> <PUBCHEM_CACTVS_HBOND_ACCEPTOR>
5

> <PUBCHEM_CACTVS_HBOND_DONOR>
1

> <PUBCHEM_CACTVS_ROTATABLE_BOND>
2

> <PUBCHEM_CACTVS_SUBSKEYS>
AAADccB7oAAAAAAAAAAAAAAAAAAAAWJAAAA8QAAAAAAAAFgB/gAAHgAYAAAADCzhnwY3tt5IFECqA65z5ACSjCs1oKAd2CEuTNiMLrLE/duGvSjsyBPI6aeY2fGeIAACAAAIAABAAAQAABAAAAAAAAAAAA==

> <PUBCHEM_IUPAC_OPENEYE_NAME>
3-(benzofuran-5-yl)-1-isopropyl-pyrazolo[3,4-d]pyrimidin-4-amine

> <PUBCHEM_IUPAC_CAS_NAME>
3-(5-benzofuranyl)-1-propan-2-yl-4-pyrazolo[3,4-d]pyrimidinamine

> <PUBCHEM_IUPAC_NAME_MARKUP>
3-(1-benzofuran-5-yl)-1-propan-2-ylpyrazolo[3,4-d]pyrimidin-4-amine

> <PUBCHEM_IUPAC_NAME>
3-(1-benzofuran-5-yl)-1-propan-2-ylpyrazolo[3,4-d]pyrimidin-4-amine

> <PUBCHEM_IUPAC_SYSTEMATIC_NAME>
3-(1-benzofuran-5-yl)-1-propan-2-yl-pyrazolo[3,4-d]pyrimidin-4-amine

> <PUBCHEM_IUPAC_TRADITIONAL_NAME>
[3-(benzofuran-5-yl)-1-isopropyl-pyrazolo[3,4-d]pyrimidin-4-yl]amine

> <PUBCHEM_IUPAC_INCHI>
InChI=1S/C16H15N5O/c1-9(2)21-16-13(15(17)18-8-19-16)14(20-21)11-3-4-12-10(7-11)5-6-22-12/h3-9H,1-2H3,(H2,17,18,19)

> <PUBCHEM_IUPAC_INCHIKEY>
AULCRCVNIWNUTH-UHFFFAOYSA-N

> <PUBCHEM_XLOGP3_AA>
2.6

> <PUBCHEM_EXACT_MASS>
293.12766012

> <PUBCHEM_MOLECULAR_FORMULA>
C16H15N5O

> <PUBCHEM_MOLECULAR_WEIGHT>
293.32

> <PUBCHEM_SMILES>
CC(C)N1C2=NC=NC(=C2C(=N1)C3=CC4=C(C=C3)OC=C4)N

> <PUBCHEM_OPENEYE_CAN_SMILES>
CC(C)N1C2=NC=NC(=C2C(=N1)C3=CC4=C(C=C3)OC=C4)N

> <PUBCHEM_OPENEYE_ISO_SMILES>
CC(C)N1C2=NC=NC(=C2C(=N1)C3=CC4=C(C=C3)OC=C4)N

> <PUBCHEM_CACTVS_TPSA>
82.8

> <PUBCHEM_MONOISOTOPIC_WEIGHT>
293.12766012

> <PUBCHEM_TOTAL_CHARGE>
0

> <PUBCHEM_HEAVY_ATOM_COUNT>
22

> <PUBCHEM_ATOM_DEF_STEREO_COUNT>
0

> <PUBCHEM_ATOM_UDEF_STEREO_COUNT>
0

> <PUBCHEM_BOND_DEF_STEREO_COUNT>
0

> <PUBCHEM_BOND_UDEF_STEREO_COUNT>
0

> <PUBCHEM_ISOTOPIC_ATOM_COUNT>
0

> <PUBCHEM_COMPONENT_COUNT>
1

> <PUBCHEM_CACTVS_TAUTO_COUNT>
-1

> <PUBCHEM_COORDINATE_TYPE>
1
5
255

> <PUBCHEM_BONDANNOTATIONS>
1  18  8
1  22  8
11  15  8
11  17  8
15  16  8
16  18  8
16  21  8
17  19  8
18  19  8
2  3  8
2  9  8
21  22  8
3  10  8
4  20  8
4  9  8
5  14  8
5  20  8
8  10  8
8  14  8
8  9  8

$$$$
