24765714
  -OEChem-03202501022D

 76 80  0     1  0  0  0  0  0999 V2000
   15.0698    1.5432    0.0000 O   0  0  0  0  0  0  0  0  0  0  0  0
    6.3320    2.5057    0.0000 O   0  0  0  0  0  0  0  0  0  0  0  0
    9.8000    1.5190    0.0000 O   0  0  0  0  0  0  0  0  0  0  0  0
   13.3378   -0.4568    0.0000 N   0  0  3  0  0  0  0  0  0  0  0  0
   14.2038    0.0432    0.0000 N   0  0  0  0  0  0  0  0  0  0  0  0
   13.3378    1.5432    0.0000 N   0  0  0  0  0  0  0  0  0  0  0  0
    2.8680    2.4923    0.0000 N   0  0  0  0  0  0  0  0  0  0  0  0
   11.5778   -0.4915    0.0000 N   0  0  0  0  0  0  0  0  0  0  0  0
    5.4718    1.0023    0.0000 N   0  0  0  0  0  0  0  0  0  0  0  0
   10.6718    1.0640    0.0000 N   0  0  0  0  0  0  0  0  0  0  0  0
    9.8077   -0.4810    0.0000 N   0  0  0  0  0  0  0  0  0  0  0  0
   13.3378   -1.4568    0.0000 C   0  0  0  0  0  0  0  0  0  0  0  0
   12.5288   -2.0446    0.0000 C   0  0  0  0  0  0  0  0  0  0  0  0
   14.1468   -2.0446    0.0000 C   0  0  0  0  0  0  0  0  0  0  0  0
   12.8378   -2.9956    0.0000 C   0  0  0  0  0  0  0  0  0  0  0  0
   13.8378   -2.9956    0.0000 C   0  0  0  0  0  0  0  0  0  0  0  0
   12.4718    0.0432    0.0000 C   0  0  0  0  0  0  0  0  0  0  0  0
    4.6038    1.4990    0.0000 C   0  0  0  0  0  0  0  0  0  0  0  0
    4.6000    2.4990    0.0000 C   0  0  0  0  0  0  0  0  0  0  0  0
    3.7398    0.9957    0.0000 C   0  0  0  0  0  0  0  0  0  0  0  0
   12.4718    1.0432    0.0000 C   0  0  0  0  0  0  0  0  0  0  0  0
   15.0698   -0.4568    0.0000 C   0  0  0  0  0  0  0  0  0  0  0  0
   14.2038    1.0432    0.0000 C   0  0  0  0  0  0  0  0  0  0  0  0
    3.7320    2.9956    0.0000 C   0  0  0  0  0  0  0  0  0  0  0  0
    2.8718    1.4923    0.0000 C   0  0  0  0  0  0  0  0  0  0  0  0
   11.5778    1.5778    0.0000 C   0  0  0  0  0  0  0  0  0  0  0  0
   15.9359    0.0432    0.0000 C   0  0  0  0  0  0  0  0  0  0  0  0
    2.0000    2.9890    0.0000 C   0  0  0  0  0  0  0  0  0  0  0  0
   13.3378    2.5432    0.0000 C   0  0  0  0  0  0  0  0  0  0  0  0
   10.6718    0.0224    0.0000 C   0  0  0  0  0  0  0  0  0  0  0  0
    6.3359    1.5057    0.0000 C   0  0  0  0  0  0  0  0  0  0  0  0
    7.2038    1.0090    0.0000 C   0  0  0  0  0  0  0  0  0  0  0  0
    8.9397    0.0157    0.0000 C   0  0  0  0  0  0  0  0  0  0  0  0
    8.0679    1.5124    0.0000 C   0  0  0  0  0  0  0  0  0  0  0  0
    7.2077    0.0090    0.0000 C   0  0  0  0  0  0  0  0  0  0  0  0
    8.9359    1.0157    0.0000 C   0  0  0  0  0  0  0  0  0  0  0  0
    8.0756   -0.4876    0.0000 C   0  0  0  0  0  0  0  0  0  0  0  0
    9.7961    2.5190    0.0000 C   0  0  0  0  0  0  0  0  0  0  0  0
   13.8902   -1.1753    0.0000 H   0  0  0  0  0  0  0  0  0  0  0  0
   12.2188   -1.5077    0.0000 H   0  0  0  0  0  0  0  0  0  0  0  0
   11.9624   -2.2968    0.0000 H   0  0  0  0  0  0  0  0  0  0  0  0
   14.7132   -2.2968    0.0000 H   0  0  0  0  0  0  0  0  0  0  0  0
   14.4568   -1.5077    0.0000 H   0  0  0  0  0  0  0  0  0  0  0  0
   12.2313   -3.1246    0.0000 H   0  0  0  0  0  0  0  0  0  0  0  0
   12.9026   -3.6122    0.0000 H   0  0  0  0  0  0  0  0  0  0  0  0
   13.7730   -3.6122    0.0000 H   0  0  0  0  0  0  0  0  0  0  0  0
   14.4442   -3.1246    0.0000 H   0  0  0  0  0  0  0  0  0  0  0  0
    4.6062    0.8790    0.0000 H   0  0  0  0  0  0  0  0  0  0  0  0
    5.2110    2.3937    0.0000 H   0  0  0  0  0  0  0  0  0  0  0  0
    4.8098    3.0824    0.0000 H   0  0  0  0  0  0  0  0  0  0  0  0
    3.3430    0.5192    0.0000 H   0  0  0  0  0  0  0  0  0  0  0  0
    4.1401    0.5223    0.0000 H   0  0  0  0  0  0  0  0  0  0  0  0
   14.6713   -0.9318    0.0000 H   0  0  0  0  0  0  0  0  0  0  0  0
   15.4684   -0.9318    0.0000 H   0  0  0  0  0  0  0  0  0  0  0  0
    4.1287    3.4721    0.0000 H   0  0  0  0  0  0  0  0  0  0  0  0
    3.3317    3.4691    0.0000 H   0  0  0  0  0  0  0  0  0  0  0  0
    2.2608    1.5976    0.0000 H   0  0  0  0  0  0  0  0  0  0  0  0
    2.6620    0.9089    0.0000 H   0  0  0  0  0  0  0  0  0  0  0  0
    5.4742    0.3823    0.0000 H   0  0  0  0  0  0  0  0  0  0  0  0
   11.5850    2.1978    0.0000 H   0  0  0  0  0  0  0  0  0  0  0  0
   16.2459   -0.4937    0.0000 H   0  0  0  0  0  0  0  0  0  0  0  0
   16.4728    0.3532    0.0000 H   0  0  0  0  0  0  0  0  0  0  0  0
   15.6259    0.5801    0.0000 H   0  0  0  0  0  0  0  0  0  0  0  0
    2.3079    3.5271    0.0000 H   0  0  0  0  0  0  0  0  0  0  0  0
    1.4619    3.2969    0.0000 H   0  0  0  0  0  0  0  0  0  0  0  0
    1.6921    2.4508    0.0000 H   0  0  0  0  0  0  0  0  0  0  0  0
   13.9578    2.5432    0.0000 H   0  0  0  0  0  0  0  0  0  0  0  0
   13.3378    3.1632    0.0000 H   0  0  0  0  0  0  0  0  0  0  0  0
   12.7178    2.5432    0.0000 H   0  0  0  0  0  0  0  0  0  0  0  0
    9.8100   -1.1010    0.0000 H   0  0  0  0  0  0  0  0  0  0  0  0
    8.0655    2.1324    0.0000 H   0  0  0  0  0  0  0  0  0  0  0  0
    6.6719   -0.3030    0.0000 H   0  0  0  0  0  0  0  0  0  0  0  0
    8.0780   -1.1076    0.0000 H   0  0  0  0  0  0  0  0  0  0  0  0
   10.4161    2.5214    0.0000 H   0  0  0  0  0  0  0  0  0  0  0  0
    9.7937    3.1390    0.0000 H   0  0  0  0  0  0  0  0  0  0  0  0
    9.1761    2.5166    0.0000 H   0  0  0  0  0  0  0  0  0  0  0  0
  1 23  2  0  0  0  0
  2 31  2  0  0  0  0
  3 36  1  0  0  0  0
  3 38  1  0  0  0  0
  4  5  1  0  0  0  0
  4 12  1  0  0  0  0
  4 17  1  0  0  0  0
  5 22  1  0  0  0  0
  5 23  1  0  0  0  0
  6 21  1  0  0  0  0
  6 23  1  0  0  0  0
  6 29  1  0  0  0  0
  7 24  1  0  0  0  0
  7 25  1  0  0  0  0
  7 28  1  0  0  0  0
  8 17  2  0  0  0  0
  8 30  1  0  0  0  0
  9 18  1  0  0  0  0
  9 31  1  0  0  0  0
  9 59  1  0  0  0  0
 10 26  1  0  0  0  0
 10 30  2  0  0  0  0
 11 30  1  0  0  0  0
 11 33  1  0  0  0  0
 11 70  1  0  0  0  0
 12 13  1  0  0  0  0
 12 14  1  0  0  0  0
 12 39  1  0  0  0  0
 13 15  1  0  0  0  0
 13 40  1  0  0  0  0
 13 41  1  0  0  0  0
 14 16  1  0  0  0  0
 14 42  1  0  0  0  0
 14 43  1  0  0  0  0
 15 16  1  0  0  0  0
 15 44  1  0  0  0  0
 15 45  1  0  0  0  0
 16 46  1  0  0  0  0
 16 47  1  0  0  0  0
 17 21  1  0  0  0  0
 18 19  1  0  0  0  0
 18 20  1  0  0  0  0
 18 48  1  0  0  0  0
 19 24  1  0  0  0  0
 19 49  1  0  0  0  0
 19 50  1  0  0  0  0
 20 25  1  0  0  0  0
 20 51  1  0  0  0  0
 20 52  1  0  0  0  0
 21 26  2  0  0  0  0
 22 27  1  0  0  0  0
 22 53  1  0  0  0  0
 22 54  1  0  0  0  0
 24 55  1  0  0  0  0
 24 56  1  0  0  0  0
 25 57  1  0  0  0  0
 25 58  1  0  0  0  0
 26 60  1  0  0  0  0
 27 61  1  0  0  0  0
 27 62  1  0  0  0  0
 27 63  1  0  0  0  0
 28 64  1  0  0  0  0
 28 65  1  0  0  0  0
 28 66  1  0  0  0  0
 29 67  1  0  0  0  0
 29 68  1  0  0  0  0
 29 69  1  0  0  0  0
 31 32  1  0  0  0  0
 32 34  2  0  0  0  0
 32 35  1  0  0  0  0
 33 36  2  0  0  0  0
 33 37  1  0  0  0  0
 34 36  1  0  0  0  0
 34 71  1  0  0  0  0
 35 37  2  0  0  0  0
 35 72  1  0  0  0  0
 37 73  1  0  0  0  0
 38 74  1  0  0  0  0
 38 75  1  0  0  0  0
 38 76  1  0  0  0  0
M  END
> <PUBCHEM_COMPOUND_CID>
24765714

> <PUBCHEM_COMPOUND_CANONICALIZED>
1

> <PUBCHEM_CACTVS_COMPLEXITY>
818

> <PUBCHEM_CACTVS_HBOND_ACCEPTOR>
8

> <PUBCHEM_CACTVS_HBOND_DONOR>
2

> <PUBCHEM_CACTVS_ROTATABLE_BOND>
7

> <PUBCHEM_CACTVS_SUBSKEYS>
AAADcfB78AAAAAAAAAAAAAAAAAAAAYAAAAA8WLEAAAAAAACxwAAAHgAYAAAADCzBmgY/9pfIFACoAjd3dACCjCk1MqAf2KEvfNiObrLE/duVNShs1hPY6ae6yRCeCAABAAAAEAAQAAIAAAAgAAAAAAAAAA==

> <PUBCHEM_IUPAC_OPENEYE_NAME>
4-[(1-cyclopentyl-2-ethyl-4-methyl-3-oxo-pyrimido[5,4-e][1,2,4]triazin-7-yl)amino]-3-methoxy-N-(1-methyl-4-piperidyl)benzamide

> <PUBCHEM_IUPAC_CAS_NAME>
4-[(1-cyclopentyl-2-ethyl-4-methyl-3-oxo-7-pyrimido[5,4-e][1,2,4]triazinyl)amino]-3-methoxy-N-(1-methyl-4-piperidinyl)benzamide

> <PUBCHEM_IUPAC_NAME_MARKUP>
4-[(1-cyclopentyl-2-ethyl-4-methyl-3-oxopyrimido[5,4-e][1,2,4]triazin-7-yl)amino]-3-methoxy-<I>N</I>-(1-methylpiperidin-4-yl)benzamide

> <PUBCHEM_IUPAC_NAME>
4-[(1-cyclopentyl-2-ethyl-4-methyl-3-oxopyrimido[5,4-e][1,2,4]triazin-7-yl)amino]-3-methoxy-N-(1-methylpiperidin-4-yl)benzamide

> <PUBCHEM_IUPAC_SYSTEMATIC_NAME>
4-[(1-cyclopentyl-2-ethyl-4-methyl-3-oxidanylidene-pyrimido[5,4-e][1,2,4]triazin-7-yl)amino]-3-methoxy-N-(1-methylpiperidin-4-yl)benzamide

> <PUBCHEM_IUPAC_TRADITIONAL_NAME>
4-[(1-cyclopentyl-2-ethyl-3-keto-4-methyl-pyrimido[5,4-e][1,2,4]triazin-7-yl)amino]-3-methoxy-N-(1-methyl-4-piperidyl)benzamide

> <PUBCHEM_IUPAC_INCHI>
InChI=1S/C27H38N8O3/c1-5-34-27(37)33(3)22-17-28-26(31-24(22)35(34)20-8-6-7-9-20)30-21-11-10-18(16-23(21)38-4)25(36)29-19-12-14-32(2)15-13-19/h10-11,16-17,19-20H,5-9,12-15H2,1-4H3,(H,29,36)(H,28,30,31)

> <PUBCHEM_IUPAC_INCHIKEY>
TVENGSGQLJMALI-UHFFFAOYSA-N

> <PUBCHEM_XLOGP3_AA>
3.3

> <PUBCHEM_EXACT_MASS>
522.30668710

> <PUBCHEM_MOLECULAR_FORMULA>
C27H38N8O3

> <PUBCHEM_MOLECULAR_WEIGHT>
522.6

> <PUBCHEM_SMILES>
CCN1C(=O)N(C2=CN=C(N=C2N1C3CCCC3)NC4=C(C=C(C=C4)C(=O)NC5CCN(CC5)C)OC)C

> <PUBCHEM_OPENEYE_CAN_SMILES>
CCN1C(=O)N(C2=CN=C(N=C2N1C3CCCC3)NC4=C(C=C(C=C4)C(=O)NC5CCN(CC5)C)OC)C

> <PUBCHEM_OPENEYE_ISO_SMILES>
CCN1C(=O)N(C2=CN=C(N=C2N1C3CCCC3)NC4=C(C=C(C=C4)C(=O)NC5CCN(CC5)C)OC)C

> <PUBCHEM_CACTVS_TPSA>
106

> <PUBCHEM_MONOISOTOPIC_WEIGHT>
522.30668710

> <PUBCHEM_TOTAL_CHARGE>
0

> <PUBCHEM_HEAVY_ATOM_COUNT>
38

> <PUBCHEM_ATOM_DEF_STEREO_COUNT>
0

> <PUBCHEM_ATOM_UDEF_STEREO_COUNT>
0

> <PUBCHEM_BOND_DEF_STEREO_COUNT>
0

> <PUBCHEM_BOND_UDEF_STEREO_COUNT>
0

> <PUBCHEM_ISOTOPIC_ATOM_COUNT>
0

> <PUBCHEM_COMPONENT_COUNT>
1

> <PUBCHEM_CACTVS_TAUTO_COUNT>
-1

> <PUBCHEM_COORDINATE_TYPE>
1
5
255

> <PUBCHEM_BONDANNOTATIONS>
10  26  8
10  30  8
17  21  8
21  26  8
32  34  8
32  35  8
33  36  8
33  37  8
34  36  8
35  37  8
8  17  8
8  30  8

$$$$
