16129448
  -OEChem-03202504252D

 47 49  0     0  0  0  0  0  0999 V2000
    8.7942    2.0600    0.0000 F   0  0  0  0  0  0  0  0  0  0  0  0
    9.7942    3.0600    0.0000 F   0  0  0  0  0  0  0  0  0  0  0  0
   10.7942    2.0600    0.0000 F   0  0  0  0  0  0  0  0  0  0  0  0
    5.4641    0.5600    0.0000 O   0  0  0  0  0  0  0  0  0  0  0  0
   12.4725   -2.2447    0.0000 N   0  0  0  0  0  0  0  0  0  0  0  0
   10.6603    0.5600    0.0000 N   0  0  0  0  0  0  0  0  0  0  0  0
    8.9282   -2.4400    0.0000 N   0  0  0  0  0  0  0  0  0  0  0  0
   10.6603   -2.4400    0.0000 N   0  0  0  0  0  0  0  0  0  0  0  0
    9.7942   -0.9400    0.0000 N   0  0  0  0  0  0  0  0  0  0  0  0
    4.5981   -0.9400    0.0000 N   0  0  0  0  0  0  0  0  0  0  0  0
   11.5263   -0.9400    0.0000 C   0  0  0  0  0  0  0  0  0  0  0  0
   11.5263   -1.9400    0.0000 C   0  0  0  0  0  0  0  0  0  0  0  0
   10.6603   -0.4400    0.0000 C   0  0  0  0  0  0  0  0  0  0  0  0
   12.4725   -0.6353    0.0000 C   0  0  0  0  0  0  0  0  0  0  0  0
    9.7942   -1.9400    0.0000 C   0  0  0  0  0  0  0  0  0  0  0  0
    8.0622   -1.9400    0.0000 C   0  0  0  0  0  0  0  0  0  0  0  0
   13.0561   -1.4400    0.0000 C   0  0  0  0  0  0  0  0  0  0  0  0
    9.7942    1.0600    0.0000 C   0  0  0  0  0  0  0  0  0  0  0  0
    3.7320   -0.4400    0.0000 C   0  0  0  0  0  0  0  0  0  0  0  0
    6.3301   -0.9400    0.0000 C   0  0  0  0  0  0  0  0  0  0  0  0
    2.8660   -0.9400    0.0000 C   0  0  0  0  0  0  0  0  0  0  0  0
    8.0622   -0.9400    0.0000 C   0  0  0  0  0  0  0  0  0  0  0  0
    7.1962   -2.4400    0.0000 C   0  0  0  0  0  0  0  0  0  0  0  0
    7.1962   -0.4400    0.0000 C   0  0  0  0  0  0  0  0  0  0  0  0
    6.3301   -1.9400    0.0000 C   0  0  0  0  0  0  0  0  0  0  0  0
    5.4641   -0.4400    0.0000 C   0  0  0  0  0  0  0  0  0  0  0  0
    9.7942    2.0600    0.0000 C   0  0  0  0  0  0  0  0  0  0  0  0
    2.0000   -0.4400    0.0000 C   0  0  0  0  0  0  0  0  0  0  0  0
   12.6651   -0.0459    0.0000 H   0  0  0  0  0  0  0  0  0  0  0  0
   12.6651   -2.8340    0.0000 H   0  0  0  0  0  0  0  0  0  0  0  0
   11.1972    0.8700    0.0000 H   0  0  0  0  0  0  0  0  0  0  0  0
   13.6761   -1.4400    0.0000 H   0  0  0  0  0  0  0  0  0  0  0  0
    9.1836    1.1677    0.0000 H   0  0  0  0  0  0  0  0  0  0  0  0
    9.5822    0.4774    0.0000 H   0  0  0  0  0  0  0  0  0  0  0  0
    8.9282   -3.0600    0.0000 H   0  0  0  0  0  0  0  0  0  0  0  0
    4.1306    0.0349    0.0000 H   0  0  0  0  0  0  0  0  0  0  0  0
    3.3335    0.0349    0.0000 H   0  0  0  0  0  0  0  0  0  0  0  0
    2.4675   -1.4150    0.0000 H   0  0  0  0  0  0  0  0  0  0  0  0
    3.2646   -1.4150    0.0000 H   0  0  0  0  0  0  0  0  0  0  0  0
    8.5991   -0.6300    0.0000 H   0  0  0  0  0  0  0  0  0  0  0  0
    7.1962   -3.0600    0.0000 H   0  0  0  0  0  0  0  0  0  0  0  0
    7.1962    0.1800    0.0000 H   0  0  0  0  0  0  0  0  0  0  0  0
    5.7932   -2.2500    0.0000 H   0  0  0  0  0  0  0  0  0  0  0  0
    4.5981   -1.5600    0.0000 H   0  0  0  0  0  0  0  0  0  0  0  0
    2.3100    0.0969    0.0000 H   0  0  0  0  0  0  0  0  0  0  0  0
    1.4631   -0.1300    0.0000 H   0  0  0  0  0  0  0  0  0  0  0  0
    1.6900   -0.9769    0.0000 H   0  0  0  0  0  0  0  0  0  0  0  0
  1 27  1  0  0  0  0
  2 27  1  0  0  0  0
  3 27  1  0  0  0  0
  4 26  2  0  0  0  0
  5 12  1  0  0  0  0
  5 17  1  0  0  0  0
  5 30  1  0  0  0  0
  6 13  1  0  0  0  0
  6 18  1  0  0  0  0
  6 31  1  0  0  0  0
  7 15  1  0  0  0  0
  7 16  1  0  0  0  0
  7 35  1  0  0  0  0
  8 12  1  0  0  0  0
  8 15  2  0  0  0  0
  9 13  2  0  0  0  0
  9 15  1  0  0  0  0
 10 19  1  0  0  0  0
 10 26  1  0  0  0  0
 10 44  1  0  0  0  0
 11 12  2  0  0  0  0
 11 13  1  0  0  0  0
 11 14  1  0  0  0  0
 14 17  2  0  0  0  0
 14 29  1  0  0  0  0
 16 22  2  0  0  0  0
 16 23  1  0  0  0  0
 17 32  1  0  0  0  0
 18 27  1  0  0  0  0
 18 33  1  0  0  0  0
 18 34  1  0  0  0  0
 19 21  1  0  0  0  0
 19 36  1  0  0  0  0
 19 37  1  0  0  0  0
 20 24  2  0  0  0  0
 20 25  1  0  0  0  0
 20 26  1  0  0  0  0
 21 28  1  0  0  0  0
 21 38  1  0  0  0  0
 21 39  1  0  0  0  0
 22 24  1  0  0  0  0
 22 40  1  0  0  0  0
 23 25  2  0  0  0  0
 23 41  1  0  0  0  0
 24 42  1  0  0  0  0
 25 43  1  0  0  0  0
 28 45  1  0  0  0  0
 28 46  1  0  0  0  0
 28 47  1  0  0  0  0
M  END
> <PUBCHEM_COMPOUND_CID>
16129448

> <PUBCHEM_COMPOUND_CANONICALIZED>
1

> <PUBCHEM_CACTVS_COMPLEXITY>
512

> <PUBCHEM_CACTVS_HBOND_ACCEPTOR>
8

> <PUBCHEM_CACTVS_HBOND_DONOR>
4

> <PUBCHEM_CACTVS_ROTATABLE_BOND>
7

> <PUBCHEM_CACTVS_SUBSKEYS>
AAADceB7oYAAAAAAAAAAAAAAAAAAAWAAAAA8QAAAAAAAAFgB/AAAHwAQAAAADAjBmxQ/8N7JkACoAjd3dACCgCm1AqAJ2aE4ZNiIKPLA3dGEJQholgLIyacYiQCeCAAAAAAAAAAQAAAAAAAAAAAAAAAAAA==

> <PUBCHEM_IUPAC_OPENEYE_NAME>
N-propyl-4-[[4-(2,2,2-trifluoroethylamino)-7H-pyrrolo[2,3-d]pyrimidin-2-yl]amino]benzamide

> <PUBCHEM_IUPAC_CAS_NAME>
N-propyl-4-[[4-(2,2,2-trifluoroethylamino)-7H-pyrrolo[2,3-d]pyrimidin-2-yl]amino]benzamide

> <PUBCHEM_IUPAC_NAME_MARKUP>
<I>N</I>-propyl-4-[[4-(2,2,2-trifluoroethylamino)-7<I>H</I>-pyrrolo[2,3-d]pyrimidin-2-yl]amino]benzamide

> <PUBCHEM_IUPAC_NAME>
N-propyl-4-[[4-(2,2,2-trifluoroethylamino)-7H-pyrrolo[2,3-d]pyrimidin-2-yl]amino]benzamide

> <PUBCHEM_IUPAC_SYSTEMATIC_NAME>
N-propyl-4-[[4-[2,2,2-tris(fluoranyl)ethylamino]-7H-pyrrolo[2,3-d]pyrimidin-2-yl]amino]benzamide

> <PUBCHEM_IUPAC_TRADITIONAL_NAME>
N-propyl-4-[[4-(2,2,2-trifluoroethylamino)-7H-pyrrolo[2,3-d]pyrimidin-2-yl]amino]benzamide

> <PUBCHEM_IUPAC_INCHI>
InChI=1S/C18H19F3N6O/c1-2-8-23-16(28)11-3-5-12(6-4-11)25-17-26-14-13(7-9-22-14)15(27-17)24-10-18(19,20)21/h3-7,9H,2,8,10H2,1H3,(H,23,28)(H3,22,24,25,26,27)

> <PUBCHEM_IUPAC_INCHIKEY>
UJBJWYNPUOLFIZ-UHFFFAOYSA-N

> <PUBCHEM_XLOGP3_AA>
4.1

> <PUBCHEM_EXACT_MASS>
392.15724374

> <PUBCHEM_MOLECULAR_FORMULA>
C18H19F3N6O

> <PUBCHEM_MOLECULAR_WEIGHT>
392.4

> <PUBCHEM_SMILES>
CCCNC(=O)C1=CC=C(C=C1)NC2=NC3=C(C=CN3)C(=N2)NCC(F)(F)F

> <PUBCHEM_OPENEYE_CAN_SMILES>
CCCNC(=O)C1=CC=C(C=C1)NC2=NC3=C(C=CN3)C(=N2)NCC(F)(F)F

> <PUBCHEM_OPENEYE_ISO_SMILES>
CCCNC(=O)C1=CC=C(C=C1)NC2=NC3=C(C=CN3)C(=N2)NCC(F)(F)F

> <PUBCHEM_CACTVS_TPSA>
94.7

> <PUBCHEM_MONOISOTOPIC_WEIGHT>
392.15724374

> <PUBCHEM_TOTAL_CHARGE>
0

> <PUBCHEM_HEAVY_ATOM_COUNT>
28

> <PUBCHEM_ATOM_DEF_STEREO_COUNT>
0

> <PUBCHEM_ATOM_UDEF_STEREO_COUNT>
0

> <PUBCHEM_BOND_DEF_STEREO_COUNT>
0

> <PUBCHEM_BOND_UDEF_STEREO_COUNT>
0

> <PUBCHEM_ISOTOPIC_ATOM_COUNT>
0

> <PUBCHEM_COMPONENT_COUNT>
1

> <PUBCHEM_CACTVS_TAUTO_COUNT>
-1

> <PUBCHEM_COORDINATE_TYPE>
1
5
255

> <PUBCHEM_BONDANNOTATIONS>
11  12  8
11  13  8
11  14  8
14  17  8
16  22  8
16  23  8
20  24  8
20  25  8
22  24  8
23  25  8
5  12  8
5  17  8
8  12  8
8  15  8
9  13  8
9  15  8

$$$$
