44375765
  -OEChem-03202506202D

 52 56  0     0  0  0  0  0  0999 V2000
    3.9639   -3.1176    0.0000 S   0  0  0  0  0  0  0  0  0  0  0  0
    6.8455    1.8816    0.0000 O   0  0  0  0  0  0  0  0  0  0  0  0
    6.7485    2.5503    0.0000 O   0  0  0  0  0  0  0  0  0  0  0  0
    4.6844    5.4017    0.0000 O   0  0  0  0  0  0  0  0  0  0  0  0
    4.6783    0.2721    0.0000 N   0  0  0  0  0  0  0  0  0  0  0  0
    5.9422    4.1394    0.0000 N   0  0  0  0  0  0  0  0  0  0  0  0
    3.6067   -4.8124    0.0000 N   0  0  0  0  0  0  0  0  0  0  0  0
    5.2531   -4.2743    0.0000 N   0  0  0  0  0  0  0  0  0  0  0  0
    5.2619    1.0768    0.0000 C   0  0  0  0  0  0  0  0  0  0  0  0
    4.6783    1.8816    0.0000 C   0  0  0  0  0  0  0  0  0  0  0  0
    3.7320    0.5768    0.0000 C   0  0  0  0  0  0  0  0  0  0  0  0
    3.7320    1.5768    0.0000 C   0  0  0  0  0  0  0  0  0  0  0  0
    4.9889   -0.6784    0.0000 C   0  0  0  0  0  0  0  0  0  0  0  0
    6.2619    1.0768    0.0000 C   0  0  0  0  0  0  0  0  0  0  0  0
    4.3211   -1.4227    0.0000 C   0  0  0  0  0  0  0  0  0  0  0  0
    4.9889    2.8321    0.0000 C   0  0  0  0  0  0  0  0  0  0  0  0
    2.8660    0.0768    0.0000 C   0  0  0  0  0  0  0  0  0  0  0  0
    2.8660    2.0768    0.0000 C   0  0  0  0  0  0  0  0  0  0  0  0
    6.8455    0.2721    0.0000 C   0  0  0  0  0  0  0  0  0  0  0  0
    4.6318   -2.3732    0.0000 C   0  0  0  0  0  0  0  0  0  0  0  0
    7.7917    0.5768    0.0000 C   0  0  0  0  0  0  0  0  0  0  0  0
    2.0000    0.5768    0.0000 C   0  0  0  0  0  0  0  0  0  0  0  0
    2.0000    1.5768    0.0000 C   0  0  0  0  0  0  0  0  0  0  0  0
    7.7917    1.5768    0.0000 C   0  0  0  0  0  0  0  0  0  0  0  0
    5.9405    3.1394    0.0000 C   0  0  0  0  0  0  0  0  0  0  0  0
    4.4026    3.6421    0.0000 C   0  0  0  0  0  0  0  0  0  0  0  0
    4.9917    4.4501    0.0000 C   0  0  0  0  0  0  0  0  0  0  0  0
    8.6577    0.0768    0.0000 C   0  0  0  0  0  0  0  0  0  0  0  0
    8.6577    2.0768    0.0000 C   0  0  0  0  0  0  0  0  0  0  0  0
    9.5238    0.5768    0.0000 C   0  0  0  0  0  0  0  0  0  0  0  0
    9.5238    1.5768    0.0000 C   0  0  0  0  0  0  0  0  0  0  0  0
    4.2746   -4.0681    0.0000 C   0  0  0  0  0  0  0  0  0  0  0  0
    5.3715   -1.1663    0.0000 H   0  0  0  0  0  0  0  0  0  0  0  0
    5.5359   -0.3864    0.0000 H   0  0  0  0  0  0  0  0  0  0  0  0
    3.9385   -0.9348    0.0000 H   0  0  0  0  0  0  0  0  0  0  0  0
    3.7742   -1.7148    0.0000 H   0  0  0  0  0  0  0  0  0  0  0  0
    2.8660   -0.5432    0.0000 H   0  0  0  0  0  0  0  0  0  0  0  0
    2.8660    2.6968    0.0000 H   0  0  0  0  0  0  0  0  0  0  0  0
    6.6529   -0.3172    0.0000 H   0  0  0  0  0  0  0  0  0  0  0  0
    5.0143   -2.8612    0.0000 H   0  0  0  0  0  0  0  0  0  0  0  0
    5.1787   -2.0812    0.0000 H   0  0  0  0  0  0  0  0  0  0  0  0
    1.4631    0.2668    0.0000 H   0  0  0  0  0  0  0  0  0  0  0  0
    1.4631    1.8868    0.0000 H   0  0  0  0  0  0  0  0  0  0  0  0
    3.7826    3.6432    0.0000 H   0  0  0  0  0  0  0  0  0  0  0  0
    6.4445    4.5030    0.0000 H   0  0  0  0  0  0  0  0  0  0  0  0
    8.6577   -0.5432    0.0000 H   0  0  0  0  0  0  0  0  0  0  0  0
    8.6577    2.6968    0.0000 H   0  0  0  0  0  0  0  0  0  0  0  0
   10.0607    0.2668    0.0000 H   0  0  0  0  0  0  0  0  0  0  0  0
   10.0607    1.8868    0.0000 H   0  0  0  0  0  0  0  0  0  0  0  0
    3.7993   -5.4017    0.0000 H   0  0  0  0  0  0  0  0  0  0  0  0
    3.0000   -4.6845    0.0000 H   0  0  0  0  0  0  0  0  0  0  0  0
    5.4457   -4.8636    0.0000 H   0  0  0  0  0  0  0  0  0  0  0  0
  1 20  1  0  0  0  0
  1 32  1  0  0  0  0
  2 14  1  0  0  0  0
  2 24  1  0  0  0  0
  3 25  2  0  0  0  0
  4 27  2  0  0  0  0
  5  9  1  0  0  0  0
  5 11  1  0  0  0  0
  5 13  1  0  0  0  0
  6 25  1  0  0  0  0
  6 27  1  0  0  0  0
  6 45  1  0  0  0  0
  7 32  1  0  0  0  0
  7 50  1  0  0  0  0
  7 51  1  0  0  0  0
  8 32  2  0  0  0  0
  8 52  1  0  0  0  0
  9 10  2  0  0  0  0
  9 14  1  0  0  0  0
 10 12  1  0  0  0  0
 10 16  1  0  0  0  0
 11 12  1  0  0  0  0
 11 17  2  0  0  0  0
 12 18  2  0  0  0  0
 13 15  1  0  0  0  0
 13 33  1  0  0  0  0
 13 34  1  0  0  0  0
 14 19  2  0  0  0  0
 15 20  1  0  0  0  0
 15 35  1  0  0  0  0
 15 36  1  0  0  0  0
 16 25  1  0  0  0  0
 16 26  2  0  0  0  0
 17 22  1  0  0  0  0
 17 37  1  0  0  0  0
 18 23  1  0  0  0  0
 18 38  1  0  0  0  0
 19 21  1  0  0  0  0
 19 39  1  0  0  0  0
 20 40  1  0  0  0  0
 20 41  1  0  0  0  0
 21 24  1  0  0  0  0
 21 28  2  0  0  0  0
 22 23  2  0  0  0  0
 22 42  1  0  0  0  0
 23 43  1  0  0  0  0
 24 29  2  0  0  0  0
 26 27  1  0  0  0  0
 26 44  1  0  0  0  0
 28 30  1  0  0  0  0
 28 46  1  0  0  0  0
 29 31  1  0  0  0  0
 29 47  1  0  0  0  0
 30 31  2  0  0  0  0
 30 48  1  0  0  0  0
 31 49  1  0  0  0  0
M  END
> <PUBCHEM_COMPOUND_CID>
44375765

> <PUBCHEM_COMPOUND_CANONICALIZED>
1

> <PUBCHEM_CACTVS_COMPLEXITY>
802

> <PUBCHEM_CACTVS_HBOND_ACCEPTOR>
5

> <PUBCHEM_CACTVS_HBOND_DONOR>
3

> <PUBCHEM_CACTVS_ROTATABLE_BOND>
7

> <PUBCHEM_CACTVS_SUBSKEYS>
AAADceB7sABAAAAAAAAAAAAAAAAAAWJEAAAwYAAAAAAAAFgB/gAAHgQQAAAADAzF3gSxxvPMFEioA6VydASCiiDnIjAI2CG+bNgOJvLktbuHOSjk1DHY6Yec3+P+gAAAAAAKAAAAAAAAABQAAAAAAAAAAA==

> <PUBCHEM_IUPAC_OPENEYE_NAME>
2-[3-[2-(benzofuran-2-yl)-3-(2,5-dioxopyrrol-3-yl)indol-1-yl]propyl]isothiourea

> <PUBCHEM_IUPAC_CAS_NAME>
carbamimidothioic acid 3-[2-(2-benzofuranyl)-3-(2,5-dioxo-3-pyrrolyl)-1-indolyl]propyl ester

> <PUBCHEM_IUPAC_NAME_MARKUP>
3-[2-(1-benzofuran-2-yl)-3-(2,5-dioxopyrrol-3-yl)indol-1-yl]propyl carbamimidothioate

> <PUBCHEM_IUPAC_NAME>
3-[2-(1-benzofuran-2-yl)-3-(2,5-dioxopyrrol-3-yl)indol-1-yl]propyl carbamimidothioate

> <PUBCHEM_IUPAC_SYSTEMATIC_NAME>
3-[2-(1-benzofuran-2-yl)-3-[2,5-bis(oxidanylidene)pyrrol-3-yl]indol-1-yl]propyl carbamimidothioate

> <PUBCHEM_IUPAC_TRADITIONAL_NAME>
2-[3-[2-(benzofuran-2-yl)-3-(2,5-diketo-3-pyrrolin-3-yl)indol-1-yl]propyl]isothiourea

> <PUBCHEM_IUPAC_INCHI>
InChI=1S/C24H20N4O3S/c25-24(26)32-11-5-10-28-17-8-3-2-7-15(17)21(16-13-20(29)27-23(16)30)22(28)19-12-14-6-1-4-9-18(14)31-19/h1-4,6-9,12-13H,5,10-11H2,(H3,25,26)(H,27,29,30)

> <PUBCHEM_IUPAC_INCHIKEY>
YUKJJLKBBAFYNN-UHFFFAOYSA-N

> <PUBCHEM_XLOGP3_AA>
3.4

> <PUBCHEM_EXACT_MASS>
444.12561169

> <PUBCHEM_MOLECULAR_FORMULA>
C24H20N4O3S

> <PUBCHEM_MOLECULAR_WEIGHT>
444.5

> <PUBCHEM_SMILES>
C1=CC=C2C(=C1)C=C(O2)C3=C(C4=CC=CC=C4N3CCCSC(=N)N)C5=CC(=O)NC5=O

> <PUBCHEM_OPENEYE_CAN_SMILES>
C1=CC=C2C(=C1)C=C(O2)C3=C(C4=CC=CC=C4N3CCCSC(=N)N)C5=CC(=O)NC5=O

> <PUBCHEM_OPENEYE_ISO_SMILES>
C1=CC=C2C(=C1)C=C(O2)C3=C(C4=CC=CC=C4N3CCCSC(=N)N)C5=CC(=O)NC5=O

> <PUBCHEM_CACTVS_TPSA>
139

> <PUBCHEM_MONOISOTOPIC_WEIGHT>
444.12561169

> <PUBCHEM_TOTAL_CHARGE>
0

> <PUBCHEM_HEAVY_ATOM_COUNT>
32

> <PUBCHEM_ATOM_DEF_STEREO_COUNT>
0

> <PUBCHEM_ATOM_UDEF_STEREO_COUNT>
0

> <PUBCHEM_BOND_DEF_STEREO_COUNT>
0

> <PUBCHEM_BOND_UDEF_STEREO_COUNT>
0

> <PUBCHEM_ISOTOPIC_ATOM_COUNT>
0

> <PUBCHEM_COMPONENT_COUNT>
1

> <PUBCHEM_CACTVS_TAUTO_COUNT>
-1

> <PUBCHEM_COORDINATE_TYPE>
1
5
255

> <PUBCHEM_BONDANNOTATIONS>
10  12  8
11  12  8
11  17  8
12  18  8
14  19  8
17  22  8
18  23  8
19  21  8
2  14  8
2  24  8
21  24  8
21  28  8
22  23  8
24  29  8
28  30  8
29  31  8
30  31  8
5  11  8
5  9  8
9  10  8

$$$$
