49830365
  -OEChem-03202503582D

 59 63  0     1  0  0  0  0  0999 V2000
    4.6783   -1.0496    0.0000 S   0  0  0  0  0  0  0  0  0  0  0  0
   10.5028    4.4425    0.0000 F   0  0  0  0  0  0  0  0  0  0  0  0
    4.1349   -6.3153    0.0000 O   0  0  0  0  0  0  0  0  0  0  0  0
    7.5673    3.8239    0.0000 O   0  0  0  0  0  0  0  0  0  0  0  0
    3.3660   -3.7837    0.0000 N   0  0  0  0  0  0  0  0  0  0  0  0
    2.3660   -3.7837    0.0000 N   0  0  0  0  0  0  0  0  0  0  0  0
    2.0000    0.2552    0.0000 N   0  0  0  0  0  0  0  0  0  0  0  0
    2.8660    1.7552    0.0000 N   0  0  0  0  0  0  0  0  0  0  0  0
    5.9209    4.3620    0.0000 N   0  0  0  0  0  0  0  0  0  0  0  0
    7.2101    5.5187    0.0000 N   0  0  0  0  0  0  0  0  0  0  0  0
    3.7320    0.2552    0.0000 C   0  0  0  0  0  0  0  0  0  0  0  0
    3.7320   -0.7448    0.0000 C   0  0  0  0  0  0  0  0  0  0  0  0
    2.8660   -1.2448    0.0000 C   0  0  0  0  0  0  0  0  0  0  0  0
    4.6783    0.5599    0.0000 C   0  0  0  0  0  0  0  0  0  0  0  0
    2.8660   -2.2448    0.0000 C   0  0  0  0  0  0  0  0  0  0  0  0
    3.9538   -4.5927    0.0000 C   0  0  0  0  0  0  0  0  0  0  0  0
    3.6750   -2.8326    0.0000 C   0  0  0  0  0  0  0  0  0  0  0  0
    4.9889    1.5104    0.0000 C   0  0  0  0  0  0  0  0  0  0  0  0
    2.8660    0.7552    0.0000 C   0  0  0  0  0  0  0  0  0  0  0  0
    3.5471   -5.5062    0.0000 C   0  0  3  0  0  0  0  0  0  0  0  0
    5.2619   -0.2448    0.0000 C   0  0  0  0  0  0  0  0  0  0  0  0
    2.0000   -0.7448    0.0000 C   0  0  0  0  0  0  0  0  0  0  0  0
    2.0570   -2.8326    0.0000 C   0  0  0  0  0  0  0  0  0  0  0  0
    4.3211    2.2547    0.0000 C   0  0  0  0  0  0  0  0  0  0  0  0
    5.9674    1.7166    0.0000 C   0  0  0  0  0  0  0  0  0  0  0  0
    2.5526   -5.6108    0.0000 C   0  0  0  0  0  0  0  0  0  0  0  0
    5.6103    3.4114    0.0000 C   0  0  0  0  0  0  0  0  0  0  0  0
    4.6318    3.2052    0.0000 C   0  0  0  0  0  0  0  0  0  0  0  0
    6.2781    2.6672    0.0000 C   0  0  0  0  0  0  0  0  0  0  0  0
    6.8994    4.5682    0.0000 C   0  0  0  0  0  0  0  0  0  0  0  0
    8.1886    5.7249    0.0000 C   0  0  0  0  0  0  0  0  0  0  0  0
    8.8564    4.9806    0.0000 C   0  0  0  0  0  0  0  0  0  0  0  0
    8.4993    6.6754    0.0000 C   0  0  0  0  0  0  0  0  0  0  0  0
    9.8349    5.1868    0.0000 C   0  0  0  0  0  0  0  0  0  0  0  0
    9.4778    6.8817    0.0000 C   0  0  0  0  0  0  0  0  0  0  0  0
   10.1456    6.1374    0.0000 C   0  0  0  0  0  0  0  0  0  0  0  0
    4.4678   -4.9394    0.0000 H   0  0  0  0  0  0  0  0  0  0  0  0
    4.3845   -4.1467    0.0000 H   0  0  0  0  0  0  0  0  0  0  0  0
    4.2647   -2.6410    0.0000 H   0  0  0  0  0  0  0  0  0  0  0  0
    4.1637   -5.4414    0.0000 H   0  0  0  0  0  0  0  0  0  0  0  0
    5.8819   -0.2448    0.0000 H   0  0  0  0  0  0  0  0  0  0  0  0
    1.4631   -1.0548    0.0000 H   0  0  0  0  0  0  0  0  0  0  0  0
    1.4674   -2.6410    0.0000 H   0  0  0  0  0  0  0  0  0  0  0  0
    3.7144    2.1268    0.0000 H   0  0  0  0  0  0  0  0  0  0  0  0
    6.3815    1.2552    0.0000 H   0  0  0  0  0  0  0  0  0  0  0  0
    2.4877   -4.9942    0.0000 H   0  0  0  0  0  0  0  0  0  0  0  0
    1.9360   -5.6756    0.0000 H   0  0  0  0  0  0  0  0  0  0  0  0
    2.6174   -6.2274    0.0000 H   0  0  0  0  0  0  0  0  0  0  0  0
    4.2177    3.6667    0.0000 H   0  0  0  0  0  0  0  0  0  0  0  0
    6.8848    2.7950    0.0000 H   0  0  0  0  0  0  0  0  0  0  0  0
    2.3291    2.0652    0.0000 H   0  0  0  0  0  0  0  0  0  0  0  0
    3.4030    2.0652    0.0000 H   0  0  0  0  0  0  0  0  0  0  0  0
    3.8827   -6.8817    0.0000 H   0  0  0  0  0  0  0  0  0  0  0  0
    5.5069    4.8234    0.0000 H   0  0  0  0  0  0  0  0  0  0  0  0
    6.7960    5.9802    0.0000 H   0  0  0  0  0  0  0  0  0  0  0  0
    8.6638    4.3913    0.0000 H   0  0  0  0  0  0  0  0  0  0  0  0
    8.0852    7.1369    0.0000 H   0  0  0  0  0  0  0  0  0  0  0  0
    9.6704    7.4710    0.0000 H   0  0  0  0  0  0  0  0  0  0  0  0
   10.7523    6.2652    0.0000 H   0  0  0  0  0  0  0  0  0  0  0  0
  1 12  1  0  0  0  0
  1 21  1  0  0  0  0
  2 34  1  0  0  0  0
  3 20  1  0  0  0  0
  3 53  1  0  0  0  0
  4 30  2  0  0  0  0
  5  6  1  0  0  0  0
  5 16  1  0  0  0  0
  5 17  1  0  0  0  0
  6 23  2  0  0  0  0
  7 19  2  0  0  0  0
  7 22  1  0  0  0  0
  8 19  1  0  0  0  0
  8 51  1  0  0  0  0
  8 52  1  0  0  0  0
  9 27  1  0  0  0  0
  9 30  1  0  0  0  0
  9 54  1  0  0  0  0
 10 30  1  0  0  0  0
 10 31  1  0  0  0  0
 10 55  1  0  0  0  0
 11 12  2  0  0  0  0
 11 14  1  0  0  0  0
 11 19  1  0  0  0  0
 12 13  1  0  0  0  0
 13 15  1  0  0  0  0
 13 22  2  0  0  0  0
 14 18  1  0  0  0  0
 14 21  2  0  0  0  0
 15 17  2  0  0  0  0
 15 23  1  0  0  0  0
 16 20  1  0  0  0  0
 16 37  1  0  0  0  0
 16 38  1  0  0  0  0
 17 39  1  0  0  0  0
 18 24  2  0  0  0  0
 18 25  1  0  0  0  0
 20 26  1  0  0  0  0
 20 40  1  0  0  0  0
 21 41  1  0  0  0  0
 22 42  1  0  0  0  0
 23 43  1  0  0  0  0
 24 28  1  0  0  0  0
 24 44  1  0  0  0  0
 25 29  2  0  0  0  0
 25 45  1  0  0  0  0
 26 46  1  0  0  0  0
 26 47  1  0  0  0  0
 26 48  1  0  0  0  0
 27 28  2  0  0  0  0
 27 29  1  0  0  0  0
 28 49  1  0  0  0  0
 29 50  1  0  0  0  0
 31 32  2  0  0  0  0
 31 33  1  0  0  0  0
 32 34  1  0  0  0  0
 32 56  1  0  0  0  0
 33 35  2  0  0  0  0
 33 57  1  0  0  0  0
 34 36  2  0  0  0  0
 35 36  1  0  0  0  0
 35 58  1  0  0  0  0
 36 59  1  0  0  0  0
M  END
> <PUBCHEM_COMPOUND_CID>
49830365

> <PUBCHEM_COMPOUND_CANONICALIZED>
1

> <PUBCHEM_CACTVS_COMPLEXITY>
743

> <PUBCHEM_CACTVS_HBOND_ACCEPTOR>
7

> <PUBCHEM_CACTVS_HBOND_DONOR>
4

> <PUBCHEM_CACTVS_ROTATABLE_BOND>
6

> <PUBCHEM_CACTVS_SUBSKEYS>
AAADceB7sQBAAAAAAAAAAAAAAAAAAWJAAAA8YIAAAAAAAFgB/gAAHwQYCAAADBzl2g6/8dLIEgiuAjZndACThKkxijAY2DAoZJiKMOLg0dGEpAxonAL4yCcQgMAOiAAAAAAAAAAQAAAAAAAAAAAAAAAAAA==

> <PUBCHEM_IUPAC_OPENEYE_NAME>
1-[4-[4-amino-7-[1-(2-hydroxypropyl)pyrazol-4-yl]thieno[3,2-c]pyridin-3-yl]phenyl]-3-(3-fluorophenyl)urea

> <PUBCHEM_IUPAC_CAS_NAME>
1-[4-[4-amino-7-[1-(2-hydroxypropyl)-4-pyrazolyl]-3-thieno[3,2-c]pyridinyl]phenyl]-3-(3-fluorophenyl)urea

> <PUBCHEM_IUPAC_NAME_MARKUP>
1-[4-[4-amino-7-[1-(2-hydroxypropyl)pyrazol-4-yl]thieno[3,2-c]pyridin-3-yl]phenyl]-3-(3-fluorophenyl)urea

> <PUBCHEM_IUPAC_NAME>
1-[4-[4-amino-7-[1-(2-hydroxypropyl)pyrazol-4-yl]thieno[3,2-c]pyridin-3-yl]phenyl]-3-(3-fluorophenyl)urea

> <PUBCHEM_IUPAC_SYSTEMATIC_NAME>
1-[4-[4-azanyl-7-[1-(2-oxidanylpropyl)pyrazol-4-yl]thieno[3,2-c]pyridin-3-yl]phenyl]-3-(3-fluorophenyl)urea

> <PUBCHEM_IUPAC_TRADITIONAL_NAME>
1-[4-[4-amino-7-[1-(2-hydroxypropyl)pyrazol-4-yl]thieno[3,2-c]pyridin-3-yl]phenyl]-3-(3-fluorophenyl)urea

> <PUBCHEM_IUPAC_INCHI>
InChI=1S/C26H23FN6O2S/c1-15(34)12-33-13-17(10-30-33)21-11-29-25(28)23-22(14-36-24(21)23)16-5-7-19(8-6-16)31-26(35)32-20-4-2-3-18(27)9-20/h2-11,13-15,34H,12H2,1H3,(H2,28,29)(H2,31,32,35)

> <PUBCHEM_IUPAC_INCHIKEY>
XHORJSJFHVABEA-UHFFFAOYSA-N

> <PUBCHEM_XLOGP3_AA>
3.4

> <PUBCHEM_EXACT_MASS>
502.15872333

> <PUBCHEM_MOLECULAR_FORMULA>
C26H23FN6O2S

> <PUBCHEM_MOLECULAR_WEIGHT>
502.6

> <PUBCHEM_SMILES>
CC(CN1C=C(C=N1)C2=CN=C(C3=C2SC=C3C4=CC=C(C=C4)NC(=O)NC5=CC(=CC=C5)F)N)O

> <PUBCHEM_OPENEYE_CAN_SMILES>
CC(CN1C=C(C=N1)C2=CN=C(C3=C2SC=C3C4=CC=C(C=C4)NC(=O)NC5=CC(=CC=C5)F)N)O

> <PUBCHEM_OPENEYE_ISO_SMILES>
CC(CN1C=C(C=N1)C2=CN=C(C3=C2SC=C3C4=CC=C(C=C4)NC(=O)NC5=CC(=CC=C5)F)N)O

> <PUBCHEM_CACTVS_TPSA>
146

> <PUBCHEM_MONOISOTOPIC_WEIGHT>
502.15872333

> <PUBCHEM_TOTAL_CHARGE>
0

> <PUBCHEM_HEAVY_ATOM_COUNT>
36

> <PUBCHEM_ATOM_DEF_STEREO_COUNT>
0

> <PUBCHEM_ATOM_UDEF_STEREO_COUNT>
1

> <PUBCHEM_BOND_DEF_STEREO_COUNT>
0

> <PUBCHEM_BOND_UDEF_STEREO_COUNT>
0

> <PUBCHEM_ISOTOPIC_ATOM_COUNT>
0

> <PUBCHEM_COMPONENT_COUNT>
1

> <PUBCHEM_CACTVS_TAUTO_COUNT>
-1

> <PUBCHEM_COORDINATE_TYPE>
1
5
255

> <PUBCHEM_BONDANNOTATIONS>
1  12  8
1  21  8
11  12  8
11  14  8
11  19  8
12  13  8
13  22  8
14  21  8
15  17  8
15  23  8
18  24  8
18  25  8
24  28  8
25  29  8
27  28  8
27  29  8
20  3  3
31  32  8
31  33  8
32  34  8
33  35  8
34  36  8
35  36  8
5  17  8
5  6  8
6  23  8
7  19  8
7  22  8

$$$$
