44375601
  -OEChem-03202505432D

 71 75  0     0  0  0  0  0  0999 V2000
    5.4065   -3.0622    0.0000 S   0  0  0  0  0  0  0  0  0  0  0  0
    9.2948    2.4977    0.0000 O   0  0  0  0  0  0  0  0  0  0  0  0
    6.9450    5.1187    0.0000 O   0  0  0  0  0  0  0  0  0  0  0  0
    6.4954    0.2264    0.0000 N   0  0  0  0  0  0  0  0  0  0  0  0
    8.3275    3.9943    0.0000 N   0  0  0  0  0  0  0  0  0  0  0  0
    4.8621   -4.7064    0.0000 N   0  0  0  0  0  0  0  0  0  0  0  0
    3.7104   -3.4128    0.0000 N   0  0  0  0  0  0  0  0  0  0  0  0
    2.8660    1.2396    0.0000 C   0  0  0  0  0  0  0  0  0  0  0  0
    2.8660    3.2396    0.0000 C   0  0  0  0  0  0  0  0  0  0  0  0
    2.0000    1.7396    0.0000 C   0  0  0  0  0  0  0  0  0  0  0  0
    2.0000    2.7396    0.0000 C   0  0  0  0  0  0  0  0  0  0  0  0
    3.7320    1.7396    0.0000 C   0  0  0  0  0  0  0  0  0  0  0  0
    3.7320    2.7396    0.0000 C   0  0  0  0  0  0  0  0  0  0  0  0
    2.3660    0.3736    0.0000 C   0  0  0  0  0  0  0  0  0  0  0  0
    3.3660    0.3736    0.0000 C   0  0  0  0  0  0  0  0  0  0  0  0
    2.3660    4.1056    0.0000 C   0  0  0  0  0  0  0  0  0  0  0  0
    3.3660    4.1056    0.0000 C   0  0  0  0  0  0  0  0  0  0  0  0
    4.6260    1.2050    0.0000 C   0  0  0  0  0  0  0  0  0  0  0  0
    4.6260    3.2743    0.0000 C   0  0  0  0  0  0  0  0  0  0  0  0
    5.5321    1.7188    0.0000 C   0  0  0  0  0  0  0  0  0  0  0  0
    5.5321    2.7604    0.0000 C   0  0  0  0  0  0  0  0  0  0  0  0
    6.3961    1.2155    0.0000 C   0  0  0  0  0  0  0  0  0  0  0  0
    7.3055    1.6171    0.0000 C   0  0  0  0  0  0  0  0  0  0  0  0
    7.4664    0.0134    0.0000 C   0  0  0  0  0  0  0  0  0  0  0  0
    7.9697    0.8775    0.0000 C   0  0  0  0  0  0  0  0  0  0  0  0
    5.7485   -0.4386    0.0000 C   0  0  0  0  0  0  0  0  0  0  0  0
    7.5155    2.5948    0.0000 C   0  0  0  0  0  0  0  0  0  0  0  0
    5.9510   -1.4179    0.0000 C   0  0  0  0  0  0  0  0  0  0  0  0
    7.9630   -0.8545    0.0000 C   0  0  0  0  0  0  0  0  0  0  0  0
    8.9697    0.8736    0.0000 C   0  0  0  0  0  0  0  0  0  0  0  0
    8.4299    2.9996    0.0000 C   0  0  0  0  0  0  0  0  0  0  0  0
    6.8479    3.3394    0.0000 C   0  0  0  0  0  0  0  0  0  0  0  0
    8.9631   -0.8584    0.0000 C   0  0  0  0  0  0  0  0  0  0  0  0
    9.4664    0.0057    0.0000 C   0  0  0  0  0  0  0  0  0  0  0  0
    5.2041   -2.0829    0.0000 C   0  0  0  0  0  0  0  0  0  0  0  0
    7.3498    4.2043    0.0000 C   0  0  0  0  0  0  0  0  0  0  0  0
    4.6597   -3.7271    0.0000 C   0  0  0  0  0  0  0  0  0  0  0  0
    1.3894    1.8473    0.0000 H   0  0  0  0  0  0  0  0  0  0  0  0
    1.7880    1.1570    0.0000 H   0  0  0  0  0  0  0  0  0  0  0  0
    1.7880    3.3222    0.0000 H   0  0  0  0  0  0  0  0  0  0  0  0
    1.3894    2.6320    0.0000 H   0  0  0  0  0  0  0  0  0  0  0  0
    1.8291    0.6836    0.0000 H   0  0  0  0  0  0  0  0  0  0  0  0
    2.0560   -0.1633    0.0000 H   0  0  0  0  0  0  0  0  0  0  0  0
    2.9030    0.0636    0.0000 H   0  0  0  0  0  0  0  0  0  0  0  0
    2.8291    0.0636    0.0000 H   0  0  0  0  0  0  0  0  0  0  0  0
    3.6760   -0.1633    0.0000 H   0  0  0  0  0  0  0  0  0  0  0  0
    3.9030    0.6836    0.0000 H   0  0  0  0  0  0  0  0  0  0  0  0
    2.9030    4.4156    0.0000 H   0  0  0  0  0  0  0  0  0  0  0  0
    2.0560    4.6426    0.0000 H   0  0  0  0  0  0  0  0  0  0  0  0
    1.8291    3.7956    0.0000 H   0  0  0  0  0  0  0  0  0  0  0  0
    3.9030    3.7956    0.0000 H   0  0  0  0  0  0  0  0  0  0  0  0
    3.6760    4.6426    0.0000 H   0  0  0  0  0  0  0  0  0  0  0  0
    2.8291    4.4156    0.0000 H   0  0  0  0  0  0  0  0  0  0  0  0
    4.6188    0.5850    0.0000 H   0  0  0  0  0  0  0  0  0  0  0  0
    4.6188    3.8942    0.0000 H   0  0  0  0  0  0  0  0  0  0  0  0
    6.0678    3.0725    0.0000 H   0  0  0  0  0  0  0  0  0  0  0  0
    5.4229    0.0890    0.0000 H   0  0  0  0  0  0  0  0  0  0  0  0
    5.1724   -0.6677    0.0000 H   0  0  0  0  0  0  0  0  0  0  0  0
    6.2766   -1.9455    0.0000 H   0  0  0  0  0  0  0  0  0  0  0  0
    6.5271   -1.1889    0.0000 H   0  0  0  0  0  0  0  0  0  0  0  0
    7.6510   -1.3903    0.0000 H   0  0  0  0  0  0  0  0  0  0  0  0
    9.2818    1.4094    0.0000 H   0  0  0  0  0  0  0  0  0  0  0  0
    6.2312    3.2758    0.0000 H   0  0  0  0  0  0  0  0  0  0  0  0
    9.2710   -1.3965    0.0000 H   0  0  0  0  0  0  0  0  0  0  0  0
   10.0864    0.0033    0.0000 H   0  0  0  0  0  0  0  0  0  0  0  0
    4.8785   -1.5553    0.0000 H   0  0  0  0  0  0  0  0  0  0  0  0
    4.6280   -2.3119    0.0000 H   0  0  0  0  0  0  0  0  0  0  0  0
    8.7891    4.4082    0.0000 H   0  0  0  0  0  0  0  0  0  0  0  0
    4.3991   -5.1187    0.0000 H   0  0  0  0  0  0  0  0  0  0  0  0
    5.4507   -4.9013    0.0000 H   0  0  0  0  0  0  0  0  0  0  0  0
    3.2473   -3.8251    0.0000 H   0  0  0  0  0  0  0  0  0  0  0  0
  1 35  1  0  0  0  0
  1 37  1  0  0  0  0
  2 31  2  0  0  0  0
  3 36  2  0  0  0  0
  4 22  1  0  0  0  0
  4 24  1  0  0  0  0
  4 26  1  0  0  0  0
  5 31  1  0  0  0  0
  5 36  1  0  0  0  0
  5 68  1  0  0  0  0
  6 37  1  0  0  0  0
  6 69  1  0  0  0  0
  6 70  1  0  0  0  0
  7 37  2  0  0  0  0
  7 71  1  0  0  0  0
  8 10  1  0  0  0  0
  8 12  1  0  0  0  0
  8 14  1  0  0  0  0
  8 15  1  0  0  0  0
  9 11  1  0  0  0  0
  9 13  1  0  0  0  0
  9 16  1  0  0  0  0
  9 17  1  0  0  0  0
 10 11  1  0  0  0  0
 10 38  1  0  0  0  0
 10 39  1  0  0  0  0
 11 40  1  0  0  0  0
 11 41  1  0  0  0  0
 12 13  2  0  0  0  0
 12 18  1  0  0  0  0
 13 19  1  0  0  0  0
 14 42  1  0  0  0  0
 14 43  1  0  0  0  0
 14 44  1  0  0  0  0
 15 45  1  0  0  0  0
 15 46  1  0  0  0  0
 15 47  1  0  0  0  0
 16 48  1  0  0  0  0
 16 49  1  0  0  0  0
 16 50  1  0  0  0  0
 17 51  1  0  0  0  0
 17 52  1  0  0  0  0
 17 53  1  0  0  0  0
 18 20  2  0  0  0  0
 18 54  1  0  0  0  0
 19 21  2  0  0  0  0
 19 55  1  0  0  0  0
 20 21  1  0  0  0  0
 20 22  1  0  0  0  0
 21 56  1  0  0  0  0
 22 23  2  0  0  0  0
 23 25  1  0  0  0  0
 23 27  1  0  0  0  0
 24 25  1  0  0  0  0
 24 29  2  0  0  0  0
 25 30  2  0  0  0  0
 26 28  1  0  0  0  0
 26 57  1  0  0  0  0
 26 58  1  0  0  0  0
 27 31  1  0  0  0  0
 27 32  2  0  0  0  0
 28 35  1  0  0  0  0
 28 59  1  0  0  0  0
 28 60  1  0  0  0  0
 29 33  1  0  0  0  0
 29 61  1  0  0  0  0
 30 34  1  0  0  0  0
 30 62  1  0  0  0  0
 32 36  1  0  0  0  0
 32 63  1  0  0  0  0
 33 34  2  0  0  0  0
 33 64  1  0  0  0  0
 34 65  1  0  0  0  0
 35 66  1  0  0  0  0
 35 67  1  0  0  0  0
M  END
> <PUBCHEM_COMPOUND_CID>
44375601

> <PUBCHEM_COMPOUND_CANONICALIZED>
1

> <PUBCHEM_CACTVS_COMPLEXITY>
959

> <PUBCHEM_CACTVS_HBOND_ACCEPTOR>
4

> <PUBCHEM_CACTVS_HBOND_DONOR>
3

> <PUBCHEM_CACTVS_ROTATABLE_BOND>
7

> <PUBCHEM_CACTVS_SUBSKEYS>
AAADcfB7sABAAAAAAAAAAAAAAAAAAWIAAAAwYMAAAAAAAFjB9AAAHgQQAAAADgjF3gSzwPPMEAioAyVydACCgiDhAjAI2CE4ZNgIIPLglZGEIAhglCDIyYccicCfwAACAAASAACAAAQAACQAAAAAAAAAAA==

> <PUBCHEM_IUPAC_OPENEYE_NAME>
2-[3-[3-(2,5-dioxopyrrol-3-yl)-2-(1,1,4,4-tetramethyltetralin-6-yl)indol-1-yl]propyl]isothiourea

> <PUBCHEM_IUPAC_CAS_NAME>
carbamimidothioic acid 3-[3-(2,5-dioxo-3-pyrrolyl)-2-(5,5,8,8-tetramethyl-6,7-dihydronaphthalen-2-yl)-1-indolyl]propyl ester

> <PUBCHEM_IUPAC_NAME_MARKUP>
3-[3-(2,5-dioxopyrrol-3-yl)-2-(5,5,8,8-tetramethyl-6,7-dihydronaphthalen-2-yl)indol-1-yl]propyl carbamimidothioate

> <PUBCHEM_IUPAC_NAME>
3-[3-(2,5-dioxopyrrol-3-yl)-2-(5,5,8,8-tetramethyl-6,7-dihydronaphthalen-2-yl)indol-1-yl]propyl carbamimidothioate

> <PUBCHEM_IUPAC_SYSTEMATIC_NAME>
3-[3-[2,5-bis(oxidanylidene)pyrrol-3-yl]-2-(5,5,8,8-tetramethyl-6,7-dihydronaphthalen-2-yl)indol-1-yl]propyl carbamimidothioate

> <PUBCHEM_IUPAC_TRADITIONAL_NAME>
2-[3-[3-(2,5-diketo-3-pyrrolin-3-yl)-2-(1,1,4,4-tetramethyltetralin-6-yl)indol-1-yl]propyl]isothiourea

> <PUBCHEM_IUPAC_INCHI>
InChI=1S/C30H34N4O2S/c1-29(2)12-13-30(3,4)22-16-18(10-11-21(22)29)26-25(20-17-24(35)33-27(20)36)19-8-5-6-9-23(19)34(26)14-7-15-37-28(31)32/h5-6,8-11,16-17H,7,12-15H2,1-4H3,(H3,31,32)(H,33,35,36)

> <PUBCHEM_IUPAC_INCHIKEY>
WKWWLEVLAMNWLO-UHFFFAOYSA-N

> <PUBCHEM_XLOGP3_AA>
6

> <PUBCHEM_EXACT_MASS>
514.24024751

> <PUBCHEM_MOLECULAR_FORMULA>
C30H34N4O2S

> <PUBCHEM_MOLECULAR_WEIGHT>
514.7

> <PUBCHEM_SMILES>
CC1(CCC(C2=C1C=CC(=C2)C3=C(C4=CC=CC=C4N3CCCSC(=N)N)C5=CC(=O)NC5=O)(C)C)C

> <PUBCHEM_OPENEYE_CAN_SMILES>
CC1(CCC(C2=C1C=CC(=C2)C3=C(C4=CC=CC=C4N3CCCSC(=N)N)C5=CC(=O)NC5=O)(C)C)C

> <PUBCHEM_OPENEYE_ISO_SMILES>
CC1(CCC(C2=C1C=CC(=C2)C3=C(C4=CC=CC=C4N3CCCSC(=N)N)C5=CC(=O)NC5=O)(C)C)C

> <PUBCHEM_CACTVS_TPSA>
126

> <PUBCHEM_MONOISOTOPIC_WEIGHT>
514.24024751

> <PUBCHEM_TOTAL_CHARGE>
0

> <PUBCHEM_HEAVY_ATOM_COUNT>
37

> <PUBCHEM_ATOM_DEF_STEREO_COUNT>
0

> <PUBCHEM_ATOM_UDEF_STEREO_COUNT>
0

> <PUBCHEM_BOND_DEF_STEREO_COUNT>
0

> <PUBCHEM_BOND_UDEF_STEREO_COUNT>
0

> <PUBCHEM_ISOTOPIC_ATOM_COUNT>
0

> <PUBCHEM_COMPONENT_COUNT>
1

> <PUBCHEM_CACTVS_TAUTO_COUNT>
-1

> <PUBCHEM_COORDINATE_TYPE>
1
5
255

> <PUBCHEM_BONDANNOTATIONS>
12  13  8
12  18  8
13  19  8
18  20  8
19  21  8
20  21  8
22  23  8
23  25  8
24  25  8
24  29  8
25  30  8
29  33  8
30  34  8
33  34  8
4  22  8
4  24  8

$$$$
