49830638
  -OEChem-03202501302D

 36 39  0     0  0  0  0  0  0999 V2000
    2.4464   -0.3984    0.0000 O   0  0  0  0  0  0  0  0  0  0  0  0
    6.2607   -2.2555    0.0000 N   0  0  0  0  0  0  0  0  0  0  0  0
    7.2548   -2.2547    0.0000 N   0  0  0  0  0  0  0  0  0  0  0  0
   10.2080   -1.3652    0.0000 N   0  0  0  0  0  0  0  0  0  0  0  0
   12.3208    0.2273    0.0000 N   0  0  0  0  0  0  0  0  0  0  0  0
    6.7601   -0.7231    0.0000 C   0  0  0  0  0  0  0  0  0  0  0  0
    6.4511    0.2279    0.0000 C   0  0  0  0  0  0  0  0  0  0  0  0
    5.9511   -1.3109    0.0000 C   0  0  0  0  0  0  0  0  0  0  0  0
    5.4511    0.2279    0.0000 C   0  0  0  0  0  0  0  0  0  0  0  0
    5.1421   -0.7231    0.0000 C   0  0  0  0  0  0  0  0  0  0  0  0
    7.5628   -1.3095    0.0000 C   0  0  0  0  0  0  0  0  0  0  0  0
    4.7661    1.0127    0.0000 C   0  0  0  0  0  0  0  0  0  0  0  0
    4.1267   -0.9554    0.0000 C   0  0  0  0  0  0  0  0  0  0  0  0
    3.4237   -0.1867    0.0000 C   0  0  0  0  0  0  0  0  0  0  0  0
    8.5144   -1.0021    0.0000 C   0  0  0  0  0  0  0  0  0  0  0  0
    3.7456    0.8040    0.0000 C   0  0  0  0  0  0  0  0  0  0  0  0
    8.7240   -0.0244    0.0000 C   0  0  0  0  0  0  0  0  0  0  0  0
    9.2564   -1.6726    0.0000 C   0  0  0  0  0  0  0  0  0  0  0  0
    3.0793    1.5497    0.0000 C   0  0  0  0  0  0  0  0  0  0  0  0
    9.6756    0.2830    0.0000 C   0  0  0  0  0  0  0  0  0  0  0  0
   10.4176   -0.3874    0.0000 C   0  0  0  0  0  0  0  0  0  0  0  0
    2.1410   -1.3506    0.0000 C   0  0  0  0  0  0  0  0  0  0  0  0
    2.4131    2.2954    0.0000 C   0  0  0  0  0  0  0  0  0  0  0  0
   11.3692   -0.0800    0.0000 C   0  0  0  0  0  0  0  0  0  0  0  0
    7.0575    0.3568    0.0000 H   0  0  0  0  0  0  0  0  0  0  0  0
    6.3863    0.8445    0.0000 H   0  0  0  0  0  0  0  0  0  0  0  0
    5.8972   -2.7578    0.0000 H   0  0  0  0  0  0  0  0  0  0  0  0
    4.9645    1.6001    0.0000 H   0  0  0  0  0  0  0  0  0  0  0  0
    3.9419   -1.5472    0.0000 H   0  0  0  0  0  0  0  0  0  0  0  0
    8.2640    0.3913    0.0000 H   0  0  0  0  0  0  0  0  0  0  0  0
    9.1264   -2.2788    0.0000 H   0  0  0  0  0  0  0  0  0  0  0  0
    9.8055    0.8892    0.0000 H   0  0  0  0  0  0  0  0  0  0  0  0
    1.5506   -1.1613    0.0000 H   0  0  0  0  0  0  0  0  0  0  0  0
    1.9517   -1.9410    0.0000 H   0  0  0  0  0  0  0  0  0  0  0  0
    2.7314   -1.5399    0.0000 H   0  0  0  0  0  0  0  0  0  0  0  0
    2.0000    2.7578    0.0000 H   0  0  0  0  0  0  0  0  0  0  0  0
  1 14  1  0  0  0  0
  1 22  1  0  0  0  0
  2  3  1  0  0  0  0
  2  8  1  0  0  0  0
  2 27  1  0  0  0  0
  3 11  2  0  0  0  0
  4 18  1  0  0  0  0
  4 21  2  0  0  0  0
  5 24  3  0  0  0  0
  6  7  1  0  0  0  0
  6  8  2  0  0  0  0
  6 11  1  0  0  0  0
  7  9  1  0  0  0  0
  7 25  1  0  0  0  0
  7 26  1  0  0  0  0
  8 10  1  0  0  0  0
  9 10  1  0  0  0  0
  9 12  2  0  0  0  0
 10 13  2  0  0  0  0
 11 15  1  0  0  0  0
 12 16  1  0  0  0  0
 12 28  1  0  0  0  0
 13 14  1  0  0  0  0
 13 29  1  0  0  0  0
 14 16  2  0  0  0  0
 15 17  1  0  0  0  0
 15 18  2  0  0  0  0
 16 19  1  0  0  0  0
 17 20  2  0  0  0  0
 17 30  1  0  0  0  0
 18 31  1  0  0  0  0
 19 23  3  0  0  0  0
 20 21  1  0  0  0  0
 20 32  1  0  0  0  0
 21 24  1  0  0  0  0
 22 33  1  0  0  0  0
 22 34  1  0  0  0  0
 22 35  1  0  0  0  0
 23 36  1  0  0  0  0
M  END
> <PUBCHEM_COMPOUND_CID>
49830638

> <PUBCHEM_COMPOUND_CANONICALIZED>
1

> <PUBCHEM_CACTVS_COMPLEXITY>
574

> <PUBCHEM_CACTVS_HBOND_ACCEPTOR>
4

> <PUBCHEM_CACTVS_HBOND_DONOR>
1

> <PUBCHEM_CACTVS_ROTATABLE_BOND>
3

> <PUBCHEM_CACTVS_SUBSKEYS>
AAADccB7oAAAAAAAAAAAAAAAAAAAAeIAAAA8QAAAAAAWAGAB8AAAHgAYAAAADAzBngY+hpJrFADyHzRnRAiyjCAxIiAY+SA+bJgMpuLE8duEtChkyBHI6A+wwPAO4AADAAAYAADAAAYAADAAASAACQAAAA==

> <PUBCHEM_IUPAC_OPENEYE_NAME>
5-(6-ethynyl-7-methoxy-1,4-dihydroindeno[1,2-c]pyrazol-3-yl)pyridine-2-carbonitrile

> <PUBCHEM_IUPAC_CAS_NAME>
5-(6-ethynyl-7-methoxy-1,4-dihydroindeno[1,2-c]pyrazol-3-yl)-2-pyridinecarbonitrile

> <PUBCHEM_IUPAC_NAME_MARKUP>
5-(6-ethynyl-7-methoxy-1,4-dihydroindeno[1,2-c]pyrazol-3-yl)pyridine-2-carbonitrile

> <PUBCHEM_IUPAC_NAME>
5-(6-ethynyl-7-methoxy-1,4-dihydroindeno[1,2-c]pyrazol-3-yl)pyridine-2-carbonitrile

> <PUBCHEM_IUPAC_SYSTEMATIC_NAME>
5-(6-ethynyl-7-methoxy-1,4-dihydroindeno[1,2-c]pyrazol-3-yl)pyridine-2-carbonitrile

> <PUBCHEM_IUPAC_TRADITIONAL_NAME>
5-(6-ethynyl-7-methoxy-1,4-dihydroindeno[1,2-c]pyrazol-3-yl)picolinonitrile

> <PUBCHEM_IUPAC_INCHI>
InChI=1S/C19H12N4O/c1-3-11-6-13-7-16-18(12-4-5-14(9-20)21-10-12)22-23-19(16)15(13)8-17(11)24-2/h1,4-6,8,10H,7H2,2H3,(H,22,23)

> <PUBCHEM_IUPAC_INCHIKEY>
WOTLXQZLXOXMFD-UHFFFAOYSA-N

> <PUBCHEM_XLOGP3_AA>
2.7

> <PUBCHEM_EXACT_MASS>
312.10111102

> <PUBCHEM_MOLECULAR_FORMULA>
C19H12N4O

> <PUBCHEM_MOLECULAR_WEIGHT>
312.3

> <PUBCHEM_SMILES>
COC1=C(C=C2CC3=C(C2=C1)NN=C3C4=CN=C(C=C4)C#N)C#C

> <PUBCHEM_OPENEYE_CAN_SMILES>
COC1=C(C=C2CC3=C(C2=C1)NN=C3C4=CN=C(C=C4)C#N)C#C

> <PUBCHEM_OPENEYE_ISO_SMILES>
COC1=C(C=C2CC3=C(C2=C1)NN=C3C4=CN=C(C=C4)C#N)C#C

> <PUBCHEM_CACTVS_TPSA>
74.6

> <PUBCHEM_MONOISOTOPIC_WEIGHT>
312.10111102

> <PUBCHEM_TOTAL_CHARGE>
0

> <PUBCHEM_HEAVY_ATOM_COUNT>
24

> <PUBCHEM_ATOM_DEF_STEREO_COUNT>
0

> <PUBCHEM_ATOM_UDEF_STEREO_COUNT>
0

> <PUBCHEM_BOND_DEF_STEREO_COUNT>
0

> <PUBCHEM_BOND_UDEF_STEREO_COUNT>
0

> <PUBCHEM_ISOTOPIC_ATOM_COUNT>
0

> <PUBCHEM_COMPONENT_COUNT>
1

> <PUBCHEM_CACTVS_TAUTO_COUNT>
-1

> <PUBCHEM_COORDINATE_TYPE>
1
5
255

> <PUBCHEM_BONDANNOTATIONS>
10  13  8
12  16  8
13  14  8
14  16  8
15  17  8
15  18  8
17  20  8
2  3  8
2  8  8
20  21  8
3  11  8
4  18  8
4  21  8
6  11  8
6  8  8
9  10  8
9  12  8

$$$$
