44406013
  -OEChem-03202502032D

 42 45  0     0  0  0  0  0  0999 V2000
    8.5836   -1.3368    0.0000 S   0  0  0  0  0  0  0  0  0  0  0  0
    6.5000    0.3340    0.0000 O   0  0  0  0  0  0  0  0  0  0  0  0
   11.0687   -0.5321    0.0000 N   0  0  0  0  0  0  0  0  0  0  0  0
    6.5000   -1.3981    0.0000 N   0  0  0  0  0  0  0  0  0  0  0  0
   10.4809   -1.3411    0.0000 N   0  0  0  0  0  0  0  0  0  0  0  0
    9.5298   -0.0321    0.0000 C   0  0  0  0  0  0  0  0  0  0  0  0
   10.4809    0.2770    0.0000 C   0  0  0  0  0  0  0  0  0  0  0  0
    9.5298   -1.0321    0.0000 C   0  0  0  0  0  0  0  0  0  0  0  0
    8.5836    0.2727    0.0000 C   0  0  0  0  0  0  0  0  0  0  0  0
    8.0000   -0.5321    0.0000 C   0  0  0  0  0  0  0  0  0  0  0  0
    5.0000   -2.2641    0.0000 C   0  0  0  0  0  0  0  0  0  0  0  0
    5.5000   -1.3981    0.0000 C   0  0  0  0  0  0  0  0  0  0  0  0
   10.7899    1.2280    0.0000 C   0  0  0  0  0  0  0  0  0  0  0  0
    4.0000   -2.2641    0.0000 C   0  0  0  0  0  0  0  0  0  0  0  0
    7.0000   -0.5321    0.0000 C   0  0  0  0  0  0  0  0  0  0  0  0
   11.7681    1.4359    0.0000 C   0  0  0  0  0  0  0  0  0  0  0  0
   10.1208    1.9712    0.0000 C   0  0  0  0  0  0  0  0  0  0  0  0
    3.5000   -3.1301    0.0000 C   0  0  0  0  0  0  0  0  0  0  0  0
    3.5000   -1.3981    0.0000 C   0  0  0  0  0  0  0  0  0  0  0  0
   12.0771    2.3870    0.0000 C   0  0  0  0  0  0  0  0  0  0  0  0
   10.4298    2.9222    0.0000 C   0  0  0  0  0  0  0  0  0  0  0  0
    2.5000   -3.1301    0.0000 C   0  0  0  0  0  0  0  0  0  0  0  0
    2.5000   -1.3981    0.0000 C   0  0  0  0  0  0  0  0  0  0  0  0
   11.4079    3.1301    0.0000 C   0  0  0  0  0  0  0  0  0  0  0  0
    2.0000   -2.2641    0.0000 C   0  0  0  0  0  0  0  0  0  0  0  0
    8.3910    0.8620    0.0000 H   0  0  0  0  0  0  0  0  0  0  0  0
    4.8923   -2.8747    0.0000 H   0  0  0  0  0  0  0  0  0  0  0  0
    5.5826   -2.4762    0.0000 H   0  0  0  0  0  0  0  0  0  0  0  0
    5.6077   -0.7875    0.0000 H   0  0  0  0  0  0  0  0  0  0  0  0
    4.9174   -1.1860    0.0000 H   0  0  0  0  0  0  0  0  0  0  0  0
   11.6887   -0.5321    0.0000 H   0  0  0  0  0  0  0  0  0  0  0  0
    6.8100   -1.9350    0.0000 H   0  0  0  0  0  0  0  0  0  0  0  0
   12.1829    0.9752    0.0000 H   0  0  0  0  0  0  0  0  0  0  0  0
    9.5143    1.8423    0.0000 H   0  0  0  0  0  0  0  0  0  0  0  0
    3.8100   -3.6671    0.0000 H   0  0  0  0  0  0  0  0  0  0  0  0
    3.8100   -0.8611    0.0000 H   0  0  0  0  0  0  0  0  0  0  0  0
   12.6835    2.5159    0.0000 H   0  0  0  0  0  0  0  0  0  0  0  0
   10.0149    3.3830    0.0000 H   0  0  0  0  0  0  0  0  0  0  0  0
    2.1900   -3.6671    0.0000 H   0  0  0  0  0  0  0  0  0  0  0  0
    2.1900   -0.8611    0.0000 H   0  0  0  0  0  0  0  0  0  0  0  0
   11.5995    3.7198    0.0000 H   0  0  0  0  0  0  0  0  0  0  0  0
    1.3800   -2.2641    0.0000 H   0  0  0  0  0  0  0  0  0  0  0  0
  1  8  1  0  0  0  0
  1 10  1  0  0  0  0
  2 15  2  0  0  0  0
  3  5  1  0  0  0  0
  3  7  1  0  0  0  0
  3 31  1  0  0  0  0
  4 12  1  0  0  0  0
  4 15  1  0  0  0  0
  4 32  1  0  0  0  0
  5  8  2  0  0  0  0
  6  7  2  0  0  0  0
  6  8  1  0  0  0  0
  6  9  1  0  0  0  0
  7 13  1  0  0  0  0
  9 10  2  0  0  0  0
  9 26  1  0  0  0  0
 10 15  1  0  0  0  0
 11 12  1  0  0  0  0
 11 14  1  0  0  0  0
 11 27  1  0  0  0  0
 11 28  1  0  0  0  0
 12 29  1  0  0  0  0
 12 30  1  0  0  0  0
 13 16  2  0  0  0  0
 13 17  1  0  0  0  0
 14 18  2  0  0  0  0
 14 19  1  0  0  0  0
 16 20  1  0  0  0  0
 16 33  1  0  0  0  0
 17 21  2  0  0  0  0
 17 34  1  0  0  0  0
 18 22  1  0  0  0  0
 18 35  1  0  0  0  0
 19 23  2  0  0  0  0
 19 36  1  0  0  0  0
 20 24  2  0  0  0  0
 20 37  1  0  0  0  0
 21 24  1  0  0  0  0
 21 38  1  0  0  0  0
 22 25  2  0  0  0  0
 22 39  1  0  0  0  0
 23 25  1  0  0  0  0
 23 40  1  0  0  0  0
 24 41  1  0  0  0  0
 25 42  1  0  0  0  0
M  END
> <PUBCHEM_COMPOUND_CID>
44406013

> <PUBCHEM_COMPOUND_CANONICALIZED>
1

> <PUBCHEM_CACTVS_COMPLEXITY>
448

> <PUBCHEM_CACTVS_HBOND_ACCEPTOR>
3

> <PUBCHEM_CACTVS_HBOND_DONOR>
2

> <PUBCHEM_CACTVS_ROTATABLE_BOND>
5

> <PUBCHEM_CACTVS_SUBSKEYS>
AAADceB7IABAAAAAAAAAAAAAAAAAAWJAAAAwYAAAAAAWAAAB/AAAHgQYAAAADAjB3gQwgdLjAAiuAyVyUACTBIBkCBBYubkoRNgIILKg1dGEpQxgngCoyYcYicCeAAAAAAAAAAAAAAAAAAAAAAAAAAAAAA==

> <PUBCHEM_IUPAC_OPENEYE_NAME>
3-phenyl-N-(2-phenylethyl)-2H-thieno[2,3-c]pyrazole-5-carboxamide

> <PUBCHEM_IUPAC_CAS_NAME>
3-phenyl-N-(2-phenylethyl)-2H-thieno[2,3-c]pyrazole-5-carboxamide

> <PUBCHEM_IUPAC_NAME_MARKUP>
3-phenyl-<I>N</I>-(2-phenylethyl)-2<I>H</I>-thieno[2,3-c]pyrazole-5-carboxamide

> <PUBCHEM_IUPAC_NAME>
3-phenyl-N-(2-phenylethyl)-2H-thieno[2,3-c]pyrazole-5-carboxamide

> <PUBCHEM_IUPAC_SYSTEMATIC_NAME>
3-phenyl-N-(2-phenylethyl)-2H-thieno[2,3-c]pyrazole-5-carboxamide

> <PUBCHEM_IUPAC_TRADITIONAL_NAME>
N-phenethyl-3-phenyl-2H-thieno[2,3-c]pyrazole-5-carboxamide

> <PUBCHEM_IUPAC_INCHI>
InChI=1S/C20H17N3OS/c24-19(21-12-11-14-7-3-1-4-8-14)17-13-16-18(22-23-20(16)25-17)15-9-5-2-6-10-15/h1-10,13H,11-12H2,(H,21,24)(H,22,23)

> <PUBCHEM_IUPAC_INCHIKEY>
COQMBZDAQWGIGH-UHFFFAOYSA-N

> <PUBCHEM_XLOGP3_AA>
4.8

> <PUBCHEM_EXACT_MASS>
347.10923335

> <PUBCHEM_MOLECULAR_FORMULA>
C20H17N3OS

> <PUBCHEM_MOLECULAR_WEIGHT>
347.4

> <PUBCHEM_SMILES>
C1=CC=C(C=C1)CCNC(=O)C2=CC3=C(NN=C3S2)C4=CC=CC=C4

> <PUBCHEM_OPENEYE_CAN_SMILES>
C1=CC=C(C=C1)CCNC(=O)C2=CC3=C(NN=C3S2)C4=CC=CC=C4

> <PUBCHEM_OPENEYE_ISO_SMILES>
C1=CC=C(C=C1)CCNC(=O)C2=CC3=C(NN=C3S2)C4=CC=CC=C4

> <PUBCHEM_CACTVS_TPSA>
86

> <PUBCHEM_MONOISOTOPIC_WEIGHT>
347.10923335

> <PUBCHEM_TOTAL_CHARGE>
0

> <PUBCHEM_HEAVY_ATOM_COUNT>
25

> <PUBCHEM_ATOM_DEF_STEREO_COUNT>
0

> <PUBCHEM_ATOM_UDEF_STEREO_COUNT>
0

> <PUBCHEM_BOND_DEF_STEREO_COUNT>
0

> <PUBCHEM_BOND_UDEF_STEREO_COUNT>
0

> <PUBCHEM_ISOTOPIC_ATOM_COUNT>
0

> <PUBCHEM_COMPONENT_COUNT>
1

> <PUBCHEM_CACTVS_TAUTO_COUNT>
-1

> <PUBCHEM_COORDINATE_TYPE>
1
5
255

> <PUBCHEM_BONDANNOTATIONS>
1  10  8
1  8  8
13  16  8
13  17  8
14  18  8
14  19  8
16  20  8
17  21  8
18  22  8
19  23  8
20  24  8
21  24  8
22  25  8
23  25  8
3  5  8
3  7  8
5  8  8
6  7  8
6  8  8
6  9  8
9  10  8

$$$$
