46191454
  -OEChem-03192523292D

 57 59  0     0  0  0  0  0  0999 V2000
    3.5000   -2.0204    0.0000 O   0  0  0  0  0  0  0  0  0  0  0  0
    9.4421    0.0628    0.0000 O   0  0  0  0  0  0  0  0  0  0  0  0
    5.0000   -1.1543    0.0000 N   0  0  0  0  0  0  0  0  0  0  0  0
    2.5000    1.4438    0.0000 N   0  0  0  0  0  0  0  0  0  0  0  0
    7.4851   -1.9591    0.0000 N   0  0  0  0  0  0  0  0  0  0  0  0
    8.0687   -1.1543    0.0000 N   0  0  0  0  0  0  0  0  0  0  0  0
    7.7957    0.6009    0.0000 N   0  0  0  0  0  0  0  0  0  0  0  0
    5.5878   -1.9634    0.0000 C   0  0  0  0  0  0  0  0  0  0  0  0
    3.5000   -0.2883    0.0000 C   0  0  0  0  0  0  0  0  0  0  0  0
    6.5388   -1.6543    0.0000 C   0  0  0  0  0  0  0  0  0  0  0  0
    5.5878   -0.3453    0.0000 C   0  0  0  0  0  0  0  0  0  0  0  0
    6.5388   -0.6543    0.0000 C   0  0  0  0  0  0  0  0  0  0  0  0
    4.0000   -1.1543    0.0000 C   0  0  0  0  0  0  0  0  0  0  0  0
    2.5000   -0.2883    0.0000 C   0  0  0  0  0  0  0  0  0  0  0  0
    4.0000    0.5777    0.0000 C   0  0  0  0  0  0  0  0  0  0  0  0
    2.0000    0.5777    0.0000 C   0  0  0  0  0  0  0  0  0  0  0  0
    3.5000    1.4438    0.0000 C   0  0  0  0  0  0  0  0  0  0  0  0
    4.7788   -2.5511    0.0000 C   0  0  0  0  0  0  0  0  0  0  0  0
    5.8968   -2.9144    0.0000 C   0  0  0  0  0  0  0  0  0  0  0  0
    7.4851   -0.3496    0.0000 C   0  0  0  0  0  0  0  0  0  0  0  0
    2.0000    2.3098    0.0000 C   0  0  0  0  0  0  0  0  0  0  0  0
    8.7742    0.8071    0.0000 C   0  0  0  0  0  0  0  0  0  0  0  0
    9.0849    1.7577    0.0000 C   0  0  0  0  0  0  0  0  0  0  0  0
   10.0634    1.9639    0.0000 C   0  0  0  0  0  0  0  0  0  0  0  0
   10.3741    2.9144    0.0000 C   0  0  0  0  0  0  0  0  0  0  0  0
   10.7312    1.2196    0.0000 C   0  0  0  0  0  0  0  0  0  0  0  0
    3.1900   -0.8252    0.0000 H   0  0  0  0  0  0  0  0  0  0  0  0
    5.8400    0.2211    0.0000 H   0  0  0  0  0  0  0  0  0  0  0  0
    5.0508   -0.0353    0.0000 H   0  0  0  0  0  0  0  0  0  0  0  0
    1.9174   -0.5004    0.0000 H   0  0  0  0  0  0  0  0  0  0  0  0
    2.6077   -0.8989    0.0000 H   0  0  0  0  0  0  0  0  0  0  0  0
    4.4750    0.1792    0.0000 H   0  0  0  0  0  0  0  0  0  0  0  0
    4.4750    0.9763    0.0000 H   0  0  0  0  0  0  0  0  0  0  0  0
    1.5250    0.9763    0.0000 H   0  0  0  0  0  0  0  0  0  0  0  0
    1.5250    0.1792    0.0000 H   0  0  0  0  0  0  0  0  0  0  0  0
    4.0826    1.6558    0.0000 H   0  0  0  0  0  0  0  0  0  0  0  0
    3.3923    2.0543    0.0000 H   0  0  0  0  0  0  0  0  0  0  0  0
    4.4143   -2.0495    0.0000 H   0  0  0  0  0  0  0  0  0  0  0  0
    4.2772   -2.9156    0.0000 H   0  0  0  0  0  0  0  0  0  0  0  0
    5.1432   -3.0527    0.0000 H   0  0  0  0  0  0  0  0  0  0  0  0
    5.3072   -3.1060    0.0000 H   0  0  0  0  0  0  0  0  0  0  0  0
    6.0884   -3.5041    0.0000 H   0  0  0  0  0  0  0  0  0  0  0  0
    6.4865   -2.7228    0.0000 H   0  0  0  0  0  0  0  0  0  0  0  0
    7.6777   -2.5484    0.0000 H   0  0  0  0  0  0  0  0  0  0  0  0
    2.5369    2.6198    0.0000 H   0  0  0  0  0  0  0  0  0  0  0  0
    1.6900    2.8467    0.0000 H   0  0  0  0  0  0  0  0  0  0  0  0
    1.4631    1.9998    0.0000 H   0  0  0  0  0  0  0  0  0  0  0  0
    7.3817    1.0624    0.0000 H   0  0  0  0  0  0  0  0  0  0  0  0
    9.0643    2.3773    0.0000 H   0  0  0  0  0  0  0  0  0  0  0  0
    8.4711    1.8450    0.0000 H   0  0  0  0  0  0  0  0  0  0  0  0
   10.6701    2.0917    0.0000 H   0  0  0  0  0  0  0  0  0  0  0  0
   10.9634    2.7218    0.0000 H   0  0  0  0  0  0  0  0  0  0  0  0
   10.5667    3.5037    0.0000 H   0  0  0  0  0  0  0  0  0  0  0  0
    9.7847    3.1070    0.0000 H   0  0  0  0  0  0  0  0  0  0  0  0
   10.2698    0.8055    0.0000 H   0  0  0  0  0  0  0  0  0  0  0  0
   11.1453    0.7581    0.0000 H   0  0  0  0  0  0  0  0  0  0  0  0
   11.1927    1.6336    0.0000 H   0  0  0  0  0  0  0  0  0  0  0  0
  1 13  2  0  0  0  0
  2 22  2  0  0  0  0
  3  8  1  0  0  0  0
  3 11  1  0  0  0  0
  3 13  1  0  0  0  0
  4 16  1  0  0  0  0
  4 17  1  0  0  0  0
  4 21  1  0  0  0  0
  5  6  1  0  0  0  0
  5 10  1  0  0  0  0
  5 44  1  0  0  0  0
  6 20  2  0  0  0  0
  7 20  1  0  0  0  0
  7 22  1  0  0  0  0
  7 48  1  0  0  0  0
  8 10  1  0  0  0  0
  8 18  1  0  0  0  0
  8 19  1  0  0  0  0
  9 13  1  0  0  0  0
  9 14  1  0  0  0  0
  9 15  1  0  0  0  0
  9 27  1  0  0  0  0
 10 12  2  0  0  0  0
 11 12  1  0  0  0  0
 11 28  1  0  0  0  0
 11 29  1  0  0  0  0
 12 20  1  0  0  0  0
 14 16  1  0  0  0  0
 14 30  1  0  0  0  0
 14 31  1  0  0  0  0
 15 17  1  0  0  0  0
 15 32  1  0  0  0  0
 15 33  1  0  0  0  0
 16 34  1  0  0  0  0
 16 35  1  0  0  0  0
 17 36  1  0  0  0  0
 17 37  1  0  0  0  0
 18 38  1  0  0  0  0
 18 39  1  0  0  0  0
 18 40  1  0  0  0  0
 19 41  1  0  0  0  0
 19 42  1  0  0  0  0
 19 43  1  0  0  0  0
 21 45  1  0  0  0  0
 21 46  1  0  0  0  0
 21 47  1  0  0  0  0
 22 23  1  0  0  0  0
 23 24  1  0  0  0  0
 23 49  1  0  0  0  0
 23 50  1  0  0  0  0
 24 25  1  0  0  0  0
 24 26  1  0  0  0  0
 24 51  1  0  0  0  0
 25 52  1  0  0  0  0
 25 53  1  0  0  0  0
 25 54  1  0  0  0  0
 26 55  1  0  0  0  0
 26 56  1  0  0  0  0
 26 57  1  0  0  0  0
M  END
> <PUBCHEM_COMPOUND_CID>
46191454

> <PUBCHEM_COMPOUND_CANONICALIZED>
1

> <PUBCHEM_CACTVS_COMPLEXITY>
542

> <PUBCHEM_CACTVS_HBOND_ACCEPTOR>
4

> <PUBCHEM_CACTVS_HBOND_DONOR>
2

> <PUBCHEM_CACTVS_ROTATABLE_BOND>
4

> <PUBCHEM_CACTVS_SUBSKEYS>
AAADceB7sAAAAAAAAAAAAAAAAAAAAWLAAAAsAAAAAAAWAAABgAAAHgAYAAAADYjBngQDsJPjAACqAwdwcACQBAIhAAAVOSEoRBiAYBJA2MGUhAhwnwLISAIUAAAOAAAAAAAAAAAAAAAAAAAAAAAAAAAAAA==

> <PUBCHEM_IUPAC_OPENEYE_NAME>
N-[6,6-dimethyl-5-(1-methylpiperidine-4-carbonyl)-1,4-dihydropyrrolo[3,4-c]pyrazol-3-yl]-3-methyl-butanamide

> <PUBCHEM_IUPAC_CAS_NAME>
N-[6,6-dimethyl-5-[(1-methyl-4-piperidinyl)-oxomethyl]-1,4-dihydropyrrolo[3,4-c]pyrazol-3-yl]-3-methylbutanamide

> <PUBCHEM_IUPAC_NAME_MARKUP>
<I>N</I>-[6,6-dimethyl-5-(1-methylpiperidine-4-carbonyl)-1,4-dihydropyrrolo[3,4-c]pyrazol-3-yl]-3-methylbutanamide

> <PUBCHEM_IUPAC_NAME>
N-[6,6-dimethyl-5-(1-methylpiperidine-4-carbonyl)-1,4-dihydropyrrolo[3,4-c]pyrazol-3-yl]-3-methylbutanamide

> <PUBCHEM_IUPAC_SYSTEMATIC_NAME>
N-[6,6-dimethyl-5-(1-methylpiperidin-4-yl)carbonyl-1,4-dihydropyrrolo[3,4-c]pyrazol-3-yl]-3-methyl-butanamide

> <PUBCHEM_IUPAC_TRADITIONAL_NAME>
N-[6,6-dimethyl-5-(1-methylisonipecotoyl)-1,4-dihydropyrrolo[3,4-c]pyrazol-3-yl]-3-methyl-butyramide

> <PUBCHEM_IUPAC_INCHI>
InChI=1S/C19H31N5O2/c1-12(2)10-15(25)20-17-14-11-24(19(3,4)16(14)21-22-17)18(26)13-6-8-23(5)9-7-13/h12-13H,6-11H2,1-5H3,(H2,20,21,22,25)

> <PUBCHEM_IUPAC_INCHIKEY>
HUXYBQXJVXOMKX-UHFFFAOYSA-N

> <PUBCHEM_XLOGP3_AA>
1

> <PUBCHEM_EXACT_MASS>
361.24777525

> <PUBCHEM_MOLECULAR_FORMULA>
C19H31N5O2

> <PUBCHEM_MOLECULAR_WEIGHT>
361.5

> <PUBCHEM_SMILES>
CC(C)CC(=O)NC1=NNC2=C1CN(C2(C)C)C(=O)C3CCN(CC3)C

> <PUBCHEM_OPENEYE_CAN_SMILES>
CC(C)CC(=O)NC1=NNC2=C1CN(C2(C)C)C(=O)C3CCN(CC3)C

> <PUBCHEM_OPENEYE_ISO_SMILES>
CC(C)CC(=O)NC1=NNC2=C1CN(C2(C)C)C(=O)C3CCN(CC3)C

> <PUBCHEM_CACTVS_TPSA>
81.3

> <PUBCHEM_MONOISOTOPIC_WEIGHT>
361.24777525

> <PUBCHEM_TOTAL_CHARGE>
0

> <PUBCHEM_HEAVY_ATOM_COUNT>
26

> <PUBCHEM_ATOM_DEF_STEREO_COUNT>
0

> <PUBCHEM_ATOM_UDEF_STEREO_COUNT>
0

> <PUBCHEM_BOND_DEF_STEREO_COUNT>
0

> <PUBCHEM_BOND_UDEF_STEREO_COUNT>
0

> <PUBCHEM_ISOTOPIC_ATOM_COUNT>
0

> <PUBCHEM_COMPONENT_COUNT>
1

> <PUBCHEM_CACTVS_TAUTO_COUNT>
-1

> <PUBCHEM_COORDINATE_TYPE>
1
5
255

> <PUBCHEM_BONDANNOTATIONS>
10  12  8
12  20  8
5  10  8
5  6  8
6  20  8

$$$$
