24993189
  -OEChem-03192523212D

 61 65  0     0  0  0  0  0  0999 V2000
    8.1295   -0.9366    0.0000 O   0  0  0  0  0  0  0  0  0  0  0  0
    4.0604   -6.0121    0.0000 O   0  0  0  0  0  0  0  0  0  0  0  0
    8.1141    3.0634    0.0000 N   0  0  0  0  0  0  0  0  0  0  0  0
    8.1064    5.0634    0.0000 N   0  0  0  0  0  0  0  0  0  0  0  0
    3.7032   -2.7078    0.0000 N   0  0  0  0  0  0  0  0  0  0  0  0
    3.1196   -3.5126    0.0000 N   0  0  0  0  0  0  0  0  0  0  0  0
    5.4994   -1.4710    0.0000 N   0  0  0  0  0  0  0  0  0  0  0  0
    6.3936    0.0567    0.0000 N   0  0  0  0  0  0  0  0  0  0  0  0
    7.2995   -1.4641    0.0000 N   0  0  0  0  0  0  0  0  0  0  0  0
    2.4141   -5.4740    0.0000 N   0  0  0  0  0  0  0  0  0  0  0  0
    7.2461    3.5600    0.0000 C   0  0  0  0  0  0  0  0  0  0  0  0
    8.9782    3.5667    0.0000 C   0  0  0  0  0  0  0  0  0  0  0  0
    7.2423    4.5600    0.0000 C   0  0  0  0  0  0  0  0  0  0  0  0
    8.9743    4.5667    0.0000 C   0  0  0  0  0  0  0  0  0  0  0  0
    8.1179    2.0634    0.0000 C   0  0  0  0  0  0  0  0  0  0  0  0
    5.5155   -4.5126    0.0000 C   0  0  0  0  0  0  0  0  0  0  0  0
    4.6494   -4.0126    0.0000 C   0  0  0  0  0  0  0  0  0  0  0  0
    6.3815   -4.0126    0.0000 C   0  0  0  0  0  0  0  0  0  0  0  0
    4.6494   -3.0126    0.0000 C   0  0  0  0  0  0  0  0  0  0  0  0
    6.3815   -3.0126    0.0000 C   0  0  0  0  0  0  0  0  0  0  0  0
    5.5155   -2.5126    0.0000 C   0  0  0  0  0  0  0  0  0  0  0  0
    8.1025    6.0633    0.0000 C   0  0  0  0  0  0  0  0  0  0  0  0
    3.7032   -4.3173    0.0000 C   0  0  0  0  0  0  0  0  0  0  0  0
    7.2538    1.5600    0.0000 C   0  0  0  0  0  0  0  0  0  0  0  0
    8.9859    1.5667    0.0000 C   0  0  0  0  0  0  0  0  0  0  0  0
    7.2577    0.5600    0.0000 C   0  0  0  0  0  0  0  0  0  0  0  0
    7.2915   -2.5057    0.0000 C   0  0  0  0  0  0  0  0  0  0  0  0
    6.3974   -0.9433    0.0000 C   0  0  0  0  0  0  0  0  0  0  0  0
    8.1256    0.0634    0.0000 C   0  0  0  0  0  0  0  0  0  0  0  0
    8.9897    0.5667    0.0000 C   0  0  0  0  0  0  0  0  0  0  0  0
    3.3926   -1.7573    0.0000 C   0  0  0  0  0  0  0  0  0  0  0  0
    3.3926   -5.2678    0.0000 C   0  0  0  0  0  0  0  0  0  0  0  0
    8.9974   -1.4333    0.0000 C   0  0  0  0  0  0  0  0  0  0  0  0
    6.6351    3.6653    0.0000 H   0  0  0  0  0  0  0  0  0  0  0  0
    7.0363    2.9766    0.0000 H   0  0  0  0  0  0  0  0  0  0  0  0
    9.1925    2.9849    0.0000 H   0  0  0  0  0  0  0  0  0  0  0  0
    9.5883    3.6767    0.0000 H   0  0  0  0  0  0  0  0  0  0  0  0
    7.0280    5.1418    0.0000 H   0  0  0  0  0  0  0  0  0  0  0  0
    6.6321    4.4500    0.0000 H   0  0  0  0  0  0  0  0  0  0  0  0
    9.5853    4.4614    0.0000 H   0  0  0  0  0  0  0  0  0  0  0  0
    9.1841    5.1501    0.0000 H   0  0  0  0  0  0  0  0  0  0  0  0
    5.1170   -4.9875    0.0000 H   0  0  0  0  0  0  0  0  0  0  0  0
    5.9140   -4.9875    0.0000 H   0  0  0  0  0  0  0  0  0  0  0  0
    6.5936   -4.5952    0.0000 H   0  0  0  0  0  0  0  0  0  0  0  0
    6.9921   -3.9049    0.0000 H   0  0  0  0  0  0  0  0  0  0  0  0
    8.7225    6.0657    0.0000 H   0  0  0  0  0  0  0  0  0  0  0  0
    8.1001    6.6833    0.0000 H   0  0  0  0  0  0  0  0  0  0  0  0
    7.4825    6.0610    0.0000 H   0  0  0  0  0  0  0  0  0  0  0  0
    6.7157    1.8680    0.0000 H   0  0  0  0  0  0  0  0  0  0  0  0
    9.5216    1.8788    0.0000 H   0  0  0  0  0  0  0  0  0  0  0  0
    7.8248   -2.8219    0.0000 H   0  0  0  0  0  0  0  0  0  0  0  0
    5.8555    0.3646    0.0000 H   0  0  0  0  0  0  0  0  0  0  0  0
    9.5279    0.2588    0.0000 H   0  0  0  0  0  0  0  0  0  0  0  0
    3.9819   -1.5647    0.0000 H   0  0  0  0  0  0  0  0  0  0  0  0
    3.2000   -1.1680    0.0000 H   0  0  0  0  0  0  0  0  0  0  0  0
    2.8032   -1.9499    0.0000 H   0  0  0  0  0  0  0  0  0  0  0  0
    2.2214   -6.0633    0.0000 H   0  0  0  0  0  0  0  0  0  0  0  0
    2.0000   -5.0126    0.0000 H   0  0  0  0  0  0  0  0  0  0  0  0
    8.6895   -1.9714    0.0000 H   0  0  0  0  0  0  0  0  0  0  0  0
    9.5356   -1.7412    0.0000 H   0  0  0  0  0  0  0  0  0  0  0  0
    9.3054   -0.8951    0.0000 H   0  0  0  0  0  0  0  0  0  0  0  0
  1 29  1  0  0  0  0
  1 33  1  0  0  0  0
  2 32  2  0  0  0  0
  3 11  1  0  0  0  0
  3 12  1  0  0  0  0
  3 15  1  0  0  0  0
  4 13  1  0  0  0  0
  4 14  1  0  0  0  0
  4 22  1  0  0  0  0
  5  6  1  0  0  0  0
  5 19  1  0  0  0  0
  5 31  1  0  0  0  0
  6 23  2  0  0  0  0
  7 21  2  0  0  0  0
  7 28  1  0  0  0  0
  8 26  1  0  0  0  0
  8 28  1  0  0  0  0
  8 52  1  0  0  0  0
  9 27  1  0  0  0  0
  9 28  2  0  0  0  0
 10 32  1  0  0  0  0
 10 57  1  0  0  0  0
 10 58  1  0  0  0  0
 11 13  1  0  0  0  0
 11 34  1  0  0  0  0
 11 35  1  0  0  0  0
 12 14  1  0  0  0  0
 12 36  1  0  0  0  0
 12 37  1  0  0  0  0
 13 38  1  0  0  0  0
 13 39  1  0  0  0  0
 14 40  1  0  0  0  0
 14 41  1  0  0  0  0
 15 24  2  0  0  0  0
 15 25  1  0  0  0  0
 16 17  1  0  0  0  0
 16 18  1  0  0  0  0
 16 42  1  0  0  0  0
 16 43  1  0  0  0  0
 17 19  2  0  0  0  0
 17 23  1  0  0  0  0
 18 20  1  0  0  0  0
 18 44  1  0  0  0  0
 18 45  1  0  0  0  0
 19 21  1  0  0  0  0
 20 21  1  0  0  0  0
 20 27  2  0  0  0  0
 22 46  1  0  0  0  0
 22 47  1  0  0  0  0
 22 48  1  0  0  0  0
 23 32  1  0  0  0  0
 24 26  1  0  0  0  0
 24 49  1  0  0  0  0
 25 30  2  0  0  0  0
 25 50  1  0  0  0  0
 26 29  2  0  0  0  0
 27 51  1  0  0  0  0
 29 30  1  0  0  0  0
 30 53  1  0  0  0  0
 31 54  1  0  0  0  0
 31 55  1  0  0  0  0
 31 56  1  0  0  0  0
 33 59  1  0  0  0  0
 33 60  1  0  0  0  0
 33 61  1  0  0  0  0
M  END
> <PUBCHEM_COMPOUND_CID>
24993189

> <PUBCHEM_COMPOUND_CANONICALIZED>
1

> <PUBCHEM_CACTVS_COMPLEXITY>
689

> <PUBCHEM_CACTVS_HBOND_ACCEPTOR>
8

> <PUBCHEM_CACTVS_HBOND_DONOR>
2

> <PUBCHEM_CACTVS_ROTATABLE_BOND>
5

> <PUBCHEM_CACTVS_SUBSKEYS>
AAADceB78AAAAAAAAAAAAAAAAAAAAWAAAAA8eIEAAAAAAFix8AAAHgAYAAAADAzBngY/1pfIFACqAzV3dACSjCk3oqAZ2CGvbNiObrLE/duVtShs2BPY6Se8ycCeAEAAAAQAEACAgACACAQgQAAAAAAAAA==

> <PUBCHEM_IUPAC_OPENEYE_NAME>
8-[2-methoxy-5-(4-methylpiperazin-1-yl)anilino]-1-methyl-4,5-dihydropyrazolo[4,3-h]quinazoline-3-carboxamide

> <PUBCHEM_IUPAC_CAS_NAME>
8-[2-methoxy-5-(4-methyl-1-piperazinyl)anilino]-1-methyl-4,5-dihydropyrazolo[4,3-h]quinazoline-3-carboxamide

> <PUBCHEM_IUPAC_NAME_MARKUP>
8-[2-methoxy-5-(4-methylpiperazin-1-yl)anilino]-1-methyl-4,5-dihydropyrazolo[4,3-h]quinazoline-3-carboxamide

> <PUBCHEM_IUPAC_NAME>
8-[2-methoxy-5-(4-methylpiperazin-1-yl)anilino]-1-methyl-4,5-dihydropyrazolo[4,3-h]quinazoline-3-carboxamide

> <PUBCHEM_IUPAC_SYSTEMATIC_NAME>
8-[[2-methoxy-5-(4-methylpiperazin-1-yl)phenyl]amino]-1-methyl-4,5-dihydropyrazolo[4,3-h]quinazoline-3-carboxamide

> <PUBCHEM_IUPAC_TRADITIONAL_NAME>
8-[2-methoxy-5-(4-methylpiperazino)anilino]-1-methyl-4,5-dihydropyrazolo[4,3-h]quinazoline-3-carboxamide

> <PUBCHEM_IUPAC_INCHI>
InChI=1S/C23H28N8O2/c1-29-8-10-31(11-9-29)15-5-7-18(33-3)17(12-15)26-23-25-13-14-4-6-16-20(22(24)32)28-30(2)21(16)19(14)27-23/h5,7,12-13H,4,6,8-11H2,1-3H3,(H2,24,32)(H,25,26,27)

> <PUBCHEM_IUPAC_INCHIKEY>
SWTRIZHCIUWGAU-UHFFFAOYSA-N

> <PUBCHEM_XLOGP3_AA>
1.5

> <PUBCHEM_EXACT_MASS>
448.23352217

> <PUBCHEM_MOLECULAR_FORMULA>
C23H28N8O2

> <PUBCHEM_MOLECULAR_WEIGHT>
448.5

> <PUBCHEM_SMILES>
CN1CCN(CC1)C2=CC(=C(C=C2)OC)NC3=NC=C4CCC5=C(C4=N3)N(N=C5C(=O)N)C

> <PUBCHEM_OPENEYE_CAN_SMILES>
CN1CCN(CC1)C2=CC(=C(C=C2)OC)NC3=NC=C4CCC5=C(C4=N3)N(N=C5C(=O)N)C

> <PUBCHEM_OPENEYE_ISO_SMILES>
CN1CCN(CC1)C2=CC(=C(C=C2)OC)NC3=NC=C4CCC5=C(C4=N3)N(N=C5C(=O)N)C

> <PUBCHEM_CACTVS_TPSA>
114

> <PUBCHEM_MONOISOTOPIC_WEIGHT>
448.23352217

> <PUBCHEM_TOTAL_CHARGE>
0

> <PUBCHEM_HEAVY_ATOM_COUNT>
33

> <PUBCHEM_ATOM_DEF_STEREO_COUNT>
0

> <PUBCHEM_ATOM_UDEF_STEREO_COUNT>
0

> <PUBCHEM_BOND_DEF_STEREO_COUNT>
0

> <PUBCHEM_BOND_UDEF_STEREO_COUNT>
0

> <PUBCHEM_ISOTOPIC_ATOM_COUNT>
0

> <PUBCHEM_COMPONENT_COUNT>
1

> <PUBCHEM_CACTVS_TAUTO_COUNT>
-1

> <PUBCHEM_COORDINATE_TYPE>
1
5
255

> <PUBCHEM_BONDANNOTATIONS>
15  24  8
15  25  8
17  19  8
17  23  8
20  21  8
20  27  8
24  26  8
25  30  8
26  29  8
29  30  8
5  19  8
5  6  8
6  23  8
7  21  8
7  28  8
9  27  8
9  28  8

$$$$
