52947964
  -OEChem-03202500092D

 35 37  0     0  0  0  0  0  0999 V2000
    5.7567    4.0233    0.0000 S   0  0  0  0  0  0  0  0  0  0  0  0
    4.7861   -1.4712    0.0000 O   0  0  0  0  0  0  0  0  0  0  0  0
    6.7567    4.0233    0.0000 O   0  0  0  0  0  0  0  0  0  0  0  0
    4.7567    4.0233    0.0000 O   0  0  0  0  0  0  0  0  0  0  0  0
    2.1810   -5.3333    0.0000 O   0  0  0  0  0  0  0  0  0  0  0  0
    5.7567    0.0233    0.0000 N   0  0  0  0  0  0  0  0  0  0  0  0
    3.9771   -0.0700    0.0000 N   0  0  0  0  0  0  0  0  0  0  0  0
    3.5823   -4.3152    0.0000 N   0  0  0  0  0  0  0  0  0  0  0  0
    5.7567    5.0233    0.0000 N   0  0  0  0  0  0  0  0  0  0  0  0
    5.7567    3.0233    0.0000 C   0  0  0  0  0  0  0  0  0  0  0  0
    5.7567    1.0233    0.0000 C   0  0  0  0  0  0  0  0  0  0  0  0
    4.8907    2.5233    0.0000 C   0  0  0  0  0  0  0  0  0  0  0  0
    6.6227    2.5233    0.0000 C   0  0  0  0  0  0  0  0  0  0  0  0
    4.8907    1.5233    0.0000 C   0  0  0  0  0  0  0  0  0  0  0  0
    6.6227    1.5233    0.0000 C   0  0  0  0  0  0  0  0  0  0  0  0
    3.8080   -1.6791    0.0000 C   0  0  0  0  0  0  0  0  0  0  0  0
    3.4013   -2.5927    0.0000 C   0  0  0  0  0  0  0  0  0  0  0  0
    4.8907   -0.4767    0.0000 C   0  0  0  0  0  0  0  0  0  0  0  0
    3.3080   -0.8131    0.0000 C   0  0  0  0  0  0  0  0  0  0  0  0
    3.9890   -3.4017    0.0000 C   0  0  0  0  0  0  0  0  0  0  0  0
    2.4067   -2.6972    0.0000 C   0  0  0  0  0  0  0  0  0  0  0  0
    2.0000   -3.6108    0.0000 C   0  0  0  0  0  0  0  0  0  0  0  0
    2.5878   -4.4198    0.0000 C   0  0  0  0  0  0  0  0  0  0  0  0
    4.3537    2.8333    0.0000 H   0  0  0  0  0  0  0  0  0  0  0  0
    7.1597    2.8333    0.0000 H   0  0  0  0  0  0  0  0  0  0  0  0
    4.3537    1.2133    0.0000 H   0  0  0  0  0  0  0  0  0  0  0  0
    7.1597    1.2133    0.0000 H   0  0  0  0  0  0  0  0  0  0  0  0
    6.2936   -0.2867    0.0000 H   0  0  0  0  0  0  0  0  0  0  0  0
    2.6914   -0.7483    0.0000 H   0  0  0  0  0  0  0  0  0  0  0  0
    4.6056   -3.3369    0.0000 H   0  0  0  0  0  0  0  0  0  0  0  0
    2.0423   -2.1956    0.0000 H   0  0  0  0  0  0  0  0  0  0  0  0
    3.9467   -4.8168    0.0000 H   0  0  0  0  0  0  0  0  0  0  0  0
    1.3834   -3.6756    0.0000 H   0  0  0  0  0  0  0  0  0  0  0  0
    6.2936    5.3333    0.0000 H   0  0  0  0  0  0  0  0  0  0  0  0
    5.2198    5.3333    0.0000 H   0  0  0  0  0  0  0  0  0  0  0  0
  1  3  2  0  0  0  0
  1  4  2  0  0  0  0
  1  9  1  0  0  0  0
  1 10  1  0  0  0  0
  2 16  1  0  0  0  0
  2 18  1  0  0  0  0
  5 23  2  0  0  0  0
  6 11  1  0  0  0  0
  6 18  1  0  0  0  0
  6 28  1  0  0  0  0
  7 18  2  0  0  0  0
  7 19  1  0  0  0  0
  8 20  1  0  0  0  0
  8 23  1  0  0  0  0
  8 32  1  0  0  0  0
  9 34  1  0  0  0  0
  9 35  1  0  0  0  0
 10 12  2  0  0  0  0
 10 13  1  0  0  0  0
 11 14  2  0  0  0  0
 11 15  1  0  0  0  0
 12 14  1  0  0  0  0
 12 24  1  0  0  0  0
 13 15  2  0  0  0  0
 13 25  1  0  0  0  0
 14 26  1  0  0  0  0
 15 27  1  0  0  0  0
 16 17  1  0  0  0  0
 16 19  2  0  0  0  0
 17 20  2  0  0  0  0
 17 21  1  0  0  0  0
 19 29  1  0  0  0  0
 20 30  1  0  0  0  0
 21 22  2  0  0  0  0
 21 31  1  0  0  0  0
 22 23  1  0  0  0  0
 22 33  1  0  0  0  0
M  END
> <PUBCHEM_COMPOUND_CID>
52947964

> <PUBCHEM_COMPOUND_CANONICALIZED>
1

> <PUBCHEM_CACTVS_COMPLEXITY>
617

> <PUBCHEM_CACTVS_HBOND_ACCEPTOR>
7

> <PUBCHEM_CACTVS_HBOND_DONOR>
3

> <PUBCHEM_CACTVS_ROTATABLE_BOND>
4

> <PUBCHEM_CACTVS_SUBSKEYS>
AAADccBzuABAAAAAAAAAAAAAAAAAAWAAAAAwQAAAAAAAAAABwAAAHgQQQAAADAzB0gQ91ZLIFEKoArV3dHTCiDk7QiAJ2JmrZMmOJCLAubGNIAho1gJY6ecQAAAAAAQAAAAAAAAACAAAAAAAAAAAAAAAAA==

> <PUBCHEM_IUPAC_OPENEYE_NAME>
4-[[5-(6-oxo-1H-pyridin-3-yl)oxazol-2-yl]amino]benzenesulfonamide

> <PUBCHEM_IUPAC_CAS_NAME>
4-[[5-(6-oxo-1H-pyridin-3-yl)-2-oxazolyl]amino]benzenesulfonamide

> <PUBCHEM_IUPAC_NAME_MARKUP>
4-[[5-(6-oxo-1<I>H</I>-pyridin-3-yl)-1,3-oxazol-2-yl]amino]benzenesulfonamide

> <PUBCHEM_IUPAC_NAME>
4-[[5-(6-oxo-1H-pyridin-3-yl)-1,3-oxazol-2-yl]amino]benzenesulfonamide

> <PUBCHEM_IUPAC_SYSTEMATIC_NAME>
4-[[5-(6-oxidanylidene-1H-pyridin-3-yl)-1,3-oxazol-2-yl]amino]benzenesulfonamide

> <PUBCHEM_IUPAC_TRADITIONAL_NAME>
4-[[5-(6-keto-1H-pyridin-3-yl)oxazol-2-yl]amino]benzenesulfonamide

> <PUBCHEM_IUPAC_INCHI>
InChI=1S/C14H12N4O4S/c15-23(20,21)11-4-2-10(3-5-11)18-14-17-8-12(22-14)9-1-6-13(19)16-7-9/h1-8H,(H,16,19)(H,17,18)(H2,15,20,21)

> <PUBCHEM_IUPAC_INCHIKEY>
HKRNOOYNVBLPMN-UHFFFAOYSA-N

> <PUBCHEM_XLOGP3_AA>
0.3

> <PUBCHEM_EXACT_MASS>
332.05792605

> <PUBCHEM_MOLECULAR_FORMULA>
C14H12N4O4S

> <PUBCHEM_MOLECULAR_WEIGHT>
332.34

> <PUBCHEM_SMILES>
C1=CC(=CC=C1NC2=NC=C(O2)C3=CNC(=O)C=C3)S(=O)(=O)N

> <PUBCHEM_OPENEYE_CAN_SMILES>
C1=CC(=CC=C1NC2=NC=C(O2)C3=CNC(=O)C=C3)S(=O)(=O)N

> <PUBCHEM_OPENEYE_ISO_SMILES>
C1=CC(=CC=C1NC2=NC=C(O2)C3=CNC(=O)C=C3)S(=O)(=O)N

> <PUBCHEM_CACTVS_TPSA>
136

> <PUBCHEM_MONOISOTOPIC_WEIGHT>
332.05792605

> <PUBCHEM_TOTAL_CHARGE>
0

> <PUBCHEM_HEAVY_ATOM_COUNT>
23

> <PUBCHEM_ATOM_DEF_STEREO_COUNT>
0

> <PUBCHEM_ATOM_UDEF_STEREO_COUNT>
0

> <PUBCHEM_BOND_DEF_STEREO_COUNT>
0

> <PUBCHEM_BOND_UDEF_STEREO_COUNT>
0

> <PUBCHEM_ISOTOPIC_ATOM_COUNT>
0

> <PUBCHEM_COMPONENT_COUNT>
1

> <PUBCHEM_CACTVS_TAUTO_COUNT>
-1

> <PUBCHEM_COORDINATE_TYPE>
1
5
255

> <PUBCHEM_BONDANNOTATIONS>
10  12  8
10  13  8
11  14  8
11  15  8
12  14  8
13  15  8
16  19  8
17  20  8
17  21  8
2  16  8
2  18  8
21  22  8
22  23  8
7  18  8
7  19  8
8  20  8
8  23  8

$$$$
