13009352
  -OEChem-03202505342D

 67 73  0     1  0  0  0  0  0999 V2000
    4.4485   -1.6313    0.0000 O   0  0  0  0  0  0  0  0  0  0  0  0
    3.1174    0.5877    0.0000 O   0  0  0  0  0  0  0  0  0  0  0  0
    2.5660   -2.5358    0.0000 O   0  0  0  0  0  0  0  0  0  0  0  0
    9.8949   -1.7552    0.0000 O   0  0  0  0  0  0  0  0  0  0  0  0
    9.8949    1.7552    0.0000 O   0  0  0  0  0  0  0  0  0  0  0  0
    6.3280   -4.7683    0.0000 O   0  0  0  0  0  0  0  0  0  0  0  0
    6.3280    4.7683    0.0000 O   0  0  0  0  0  0  0  0  0  0  0  0
   13.1679    1.7320    0.0000 O   0  0  0  0  0  0  0  0  0  0  0  0
   11.6679    2.5981    0.0000 O   0  0  0  0  0  0  0  0  0  0  0  0
    6.1690   -1.1671    0.0000 N   0  0  0  0  0  0  0  0  0  0  0  0
    6.1690    1.1671    0.0000 N   0  0  0  0  0  0  0  0  0  0  0  0
   10.1679    0.0000    0.0000 N   0  0  0  0  0  0  0  0  0  0  0  0
   11.1679    0.0000    0.0000 N   0  0  0  0  0  0  0  0  0  0  0  0
    5.1905   -0.9609    0.0000 C   0  0  1  0  0  0  0  0  0  0  0  0
    4.7822   -0.0480    0.0000 C   0  0  0  0  0  0  0  0  0  0  0  0
    6.9060   -0.5000    0.0000 C   0  0  0  0  0  0  0  0  0  0  0  0
    3.7878   -0.1543    0.0000 C   0  0  1  0  0  0  0  0  0  0  0  0
    7.7720   -1.0000    0.0000 C   0  0  0  0  0  0  0  0  0  0  0  0
    3.5816   -1.1328    0.0000 C   0  0  1  0  0  0  0  0  0  0  0  0
    6.5741   -2.0749    0.0000 C   0  0  0  0  0  0  0  0  0  0  0  0
    6.9060    0.5000    0.0000 C   0  0  0  0  0  0  0  0  0  0  0  0
    7.5628   -1.9718    0.0000 C   0  0  0  0  0  0  0  0  0  0  0  0
    8.6381   -0.5000    0.0000 C   0  0  0  0  0  0  0  0  0  0  0  0
    7.7720    1.0000    0.0000 C   0  0  0  0  0  0  0  0  0  0  0  0
    8.6381    0.5000    0.0000 C   0  0  0  0  0  0  0  0  0  0  0  0
    7.5628    1.9718    0.0000 C   0  0  0  0  0  0  0  0  0  0  0  0
    2.6688   -1.5411    0.0000 C   0  0  0  0  0  0  0  0  0  0  0  0
    6.5741    2.0749    0.0000 C   0  0  0  0  0  0  0  0  0  0  0  0
    9.5843   -0.8047    0.0000 C   0  0  0  0  0  0  0  0  0  0  0  0
    6.1376   -3.0138    0.0000 C   0  0  0  0  0  0  0  0  0  0  0  0
    9.5843    0.8047    0.0000 C   0  0  0  0  0  0  0  0  0  0  0  0
    8.1836   -2.8006    0.0000 C   0  0  0  0  0  0  0  0  0  0  0  0
    6.7390   -3.8567    0.0000 C   0  0  0  0  0  0  0  0  0  0  0  0
    7.7689   -3.7494    0.0000 C   0  0  0  0  0  0  0  0  0  0  0  0
    8.1836    2.8006    0.0000 C   0  0  0  0  0  0  0  0  0  0  0  0
    6.1376    3.0138    0.0000 C   0  0  0  0  0  0  0  0  0  0  0  0
   11.6679    0.8660    0.0000 C   0  0  0  0  0  0  0  0  0  0  0  0
    7.7689    3.7494    0.0000 C   0  0  0  0  0  0  0  0  0  0  0  0
    6.7390    3.8567    0.0000 C   0  0  0  0  0  0  0  0  0  0  0  0
   12.6679    0.8660    0.0000 C   0  0  0  0  0  0  0  0  0  0  0  0
   11.1679    1.7320    0.0000 C   0  0  0  0  0  0  0  0  0  0  0  0
    5.3520   -1.5595    0.0000 H   0  0  0  0  0  0  0  0  0  0  0  0
    5.3715    0.1446    0.0000 H   0  0  0  0  0  0  0  0  0  0  0  0
    4.6522    0.5582    0.0000 H   0  0  0  0  0  0  0  0  0  0  0  0
    4.0090    0.4249    0.0000 H   0  0  0  0  0  0  0  0  0  0  0  0
    3.5502   -1.7520    0.0000 H   0  0  0  0  0  0  0  0  0  0  0  0
    5.5623    1.0392    0.0000 H   0  0  0  0  0  0  0  0  0  0  0  0
    2.5177   -0.9398    0.0000 H   0  0  0  0  0  0  0  0  0  0  0  0
    2.0504   -1.5854    0.0000 H   0  0  0  0  0  0  0  0  0  0  0  0
    5.5202   -3.0710    0.0000 H   0  0  0  0  0  0  0  0  0  0  0  0
    8.7995   -2.7292    0.0000 H   0  0  0  0  0  0  0  0  0  0  0  0
    2.5112    0.4578    0.0000 H   0  0  0  0  0  0  0  0  0  0  0  0
    8.1348   -4.2499    0.0000 H   0  0  0  0  0  0  0  0  0  0  0  0
    8.7995    2.7292    0.0000 H   0  0  0  0  0  0  0  0  0  0  0  0
    5.5202    3.0710    0.0000 H   0  0  0  0  0  0  0  0  0  0  0  0
   11.4779   -0.5369    0.0000 H   0  0  0  0  0  0  0  0  0  0  0  0
   11.9779    0.3291    0.0000 H   0  0  0  0  0  0  0  0  0  0  0  0
    2.0000   -2.7890    0.0000 H   0  0  0  0  0  0  0  0  0  0  0  0
    8.1348    4.2499    0.0000 H   0  0  0  0  0  0  0  0  0  0  0  0
   12.5602    0.2554    0.0000 H   0  0  0  0  0  0  0  0  0  0  0  0
   13.2505    0.6540    0.0000 H   0  0  0  0  0  0  0  0  0  0  0  0
   10.6929    2.1306    0.0000 H   0  0  0  0  0  0  0  0  0  0  0  0
   10.6929    1.3335    0.0000 H   0  0  0  0  0  0  0  0  0  0  0  0
    6.6900   -5.2716    0.0000 H   0  0  0  0  0  0  0  0  0  0  0  0
    6.6900    5.2716    0.0000 H   0  0  0  0  0  0  0  0  0  0  0  0
   13.7879    1.7320    0.0000 H   0  0  0  0  0  0  0  0  0  0  0  0
   11.3579    3.1350    0.0000 H   0  0  0  0  0  0  0  0  0  0  0  0
  1 14  1  0  0  0  0
  1 19  1  0  0  0  0
 17  2  1  1  0  0  0
  2 52  1  0  0  0  0
  3 27  1  0  0  0  0
  3 58  1  0  0  0  0
  4 29  2  0  0  0  0
  5 31  2  0  0  0  0
  6 33  1  0  0  0  0
  6 64  1  0  0  0  0
  7 39  1  0  0  0  0
  7 65  1  0  0  0  0
  8 40  1  0  0  0  0
  8 66  1  0  0  0  0
  9 41  1  0  0  0  0
  9 67  1  0  0  0  0
 14 10  1  6  0  0  0
 10 16  1  0  0  0  0
 10 20  1  0  0  0  0
 11 21  1  0  0  0  0
 11 28  1  0  0  0  0
 11 47  1  0  0  0  0
 12 13  1  0  0  0  0
 12 29  1  0  0  0  0
 12 31  1  0  0  0  0
 13 37  1  0  0  0  0
 13 56  1  0  0  0  0
 14 15  1  0  0  0  0
 14 42  1  0  0  0  0
 15 17  1  0  0  0  0
 15 43  1  0  0  0  0
 15 44  1  0  0  0  0
 16 18  1  0  0  0  0
 16 21  2  0  0  0  0
 17 19  1  0  0  0  0
 17 45  1  0  0  0  0
 18 22  1  0  0  0  0
 18 23  2  0  0  0  0
 19 27  1  6  0  0  0
 19 46  1  0  0  0  0
 20 22  2  0  0  0  0
 20 30  1  0  0  0  0
 21 24  1  0  0  0  0
 22 32  1  0  0  0  0
 23 25  1  0  0  0  0
 23 29  1  0  0  0  0
 24 25  2  0  0  0  0
 24 26  1  0  0  0  0
 25 31  1  0  0  0  0
 26 28  2  0  0  0  0
 26 35  1  0  0  0  0
 27 48  1  0  0  0  0
 27 49  1  0  0  0  0
 28 36  1  0  0  0  0
 30 33  2  0  0  0  0
 30 50  1  0  0  0  0
 32 34  2  0  0  0  0
 32 51  1  0  0  0  0
 33 34  1  0  0  0  0
 34 53  1  0  0  0  0
 35 38  2  0  0  0  0
 35 54  1  0  0  0  0
 36 39  2  0  0  0  0
 36 55  1  0  0  0  0
 37 40  1  0  0  0  0
 37 41  1  0  0  0  0
 37 57  1  0  0  0  0
 38 39  1  0  0  0  0
 38 59  1  0  0  0  0
 40 60  1  0  0  0  0
 40 61  1  0  0  0  0
 41 62  1  0  0  0  0
 41 63  1  0  0  0  0
M  END
> <PUBCHEM_COMPOUND_CID>
13009352

> <PUBCHEM_COMPOUND_CANONICALIZED>
1

> <PUBCHEM_CACTVS_COMPLEXITY>
1030

> <PUBCHEM_CACTVS_HBOND_ACCEPTOR>
10

> <PUBCHEM_CACTVS_HBOND_DONOR>
8

> <PUBCHEM_CACTVS_ROTATABLE_BOND>
6

> <PUBCHEM_CACTVS_SUBSKEYS>
AAADceB7vAAAAAAAAAAAAAAAAAAAAWLFiQAwYMAAAAAAAFgB/gAAHgAYCAAADDzhngYwxvPvlgCoAyVyVACCgCQlMiAa+aE+fNgLdvLClZOecQhn1DnL2Qe9+fOe6AACQgASACDQAASEACQAQAAAAAAAAA==

> <PUBCHEM_IUPAC_OPENEYE_NAME>
6,20-dihydroxy-13-[[2-hydroxy-1-(hydroxymethyl)ethyl]amino]-3-[(2R,4S,5R)-4-hydroxy-5-(hydroxymethyl)tetrahydrofuran-2-yl]-3,13,23-triazahexacyclo[14.7.0.02,10.04,9.011,15.017,22]tricosa-1,4(9),5,7,10,15,17(22),18,20-nonaene-12,14-dione

> <PUBCHEM_IUPAC_CAS_NAME>
13-(1,3-dihydroxypropan-2-ylamino)-6,20-dihydroxy-3-[(2R,4S,5R)-4-hydroxy-5-(hydroxymethyl)-2-oxolanyl]-3,13,23-triazahexacyclo[14.7.0.02,10.04,9.011,15.017,22]tricosa-1,4(9),5,7,10,15,17(22),18,20-nonaene-12,14-dione

> <PUBCHEM_IUPAC_NAME_MARKUP>
13-(1,3-dihydroxypropan-2-ylamino)-6,20-dihydroxy-3-[(2<I>R</I>,4<I>S</I>,5<I>R</I>)-4-hydroxy-5-(hydroxymethyl)oxolan-2-yl]-3,13,23-triazahexacyclo[14.7.0.0<SUP>2,10</SUP>.0<SUP>4,9</SUP>.0<SUP>11,15</SUP>.0<SUP>17,22</SUP>]tricosa-1,4(9),5,7,10,15,17(22),18,20-nonaene-12,14-dione

> <PUBCHEM_IUPAC_NAME>
13-(1,3-dihydroxypropan-2-ylamino)-6,20-dihydroxy-3-[(2R,4S,5R)-4-hydroxy-5-(hydroxymethyl)oxolan-2-yl]-3,13,23-triazahexacyclo[14.7.0.02,10.04,9.011,15.017,22]tricosa-1,4(9),5,7,10,15,17(22),18,20-nonaene-12,14-dione

> <PUBCHEM_IUPAC_SYSTEMATIC_NAME>
13-[1,3-bis(oxidanyl)propan-2-ylamino]-3-[(2R,4S,5R)-5-(hydroxymethyl)-4-oxidanyl-oxolan-2-yl]-6,20-bis(oxidanyl)-3,13,23-triazahexacyclo[14.7.0.02,10.04,9.011,15.017,22]tricosa-1,4(9),5,7,10,15,17(22),18,20-nonaene-12,14-dione

> <PUBCHEM_IUPAC_TRADITIONAL_NAME>
6,20-dihydroxy-13-[(2-hydroxy-1-methylol-ethyl)amino]-3-[(2R,4S,5R)-4-hydroxy-5-methylol-tetrahydrofuran-2-yl]-3,13,23-triazahexacyclo[14.7.0.02,10.04,9.011,15.017,22]tricosa-1,4(9),5,7,10,15,17(22),18,20-nonaene-12,14-quinone

> <PUBCHEM_IUPAC_INCHI>
InChI=1S/C28H26N4O9/c33-8-11(9-34)30-32-27(39)23-21-14-3-1-12(36)5-16(14)29-25(21)26-22(24(23)28(32)40)15-4-2-13(37)6-17(15)31(26)20-7-18(38)19(10-35)41-20/h1-6,11,18-20,29-30,33-38H,7-10H2/t18-,19+,20+/m0/s1

> <PUBCHEM_IUPAC_INCHIKEY>
KZSMMAXMNIMYCY-XUVXKRRUSA-N

> <PUBCHEM_XLOGP3_AA>
0.9

> <PUBCHEM_EXACT_MASS>
562.16997842

> <PUBCHEM_MOLECULAR_FORMULA>
C28H26N4O9

> <PUBCHEM_MOLECULAR_WEIGHT>
562.5

> <PUBCHEM_SMILES>
C1[C@@H]([C@H](O[C@H]1N2C3=C(C=CC(=C3)O)C4=C5C(=C6C7=C(C=C(C=C7)O)NC6=C42)C(=O)N(C5=O)NC(CO)CO)CO)O

> <PUBCHEM_OPENEYE_CAN_SMILES>
C1C(C(OC1N2C3=C(C=CC(=C3)O)C4=C5C(=C6C7=C(C=C(C=C7)O)NC6=C42)C(=O)N(C5=O)NC(CO)CO)CO)O

> <PUBCHEM_OPENEYE_ISO_SMILES>
C1[C@@H]([C@H](O[C@H]1N2C3=C(C=CC(=C3)O)C4=C5C(=C6C7=C(C=C(C=C7)O)NC6=C42)C(=O)N(C5=O)NC(CO)CO)CO)O

> <PUBCHEM_CACTVS_TPSA>
201

> <PUBCHEM_MONOISOTOPIC_WEIGHT>
562.16997842

> <PUBCHEM_TOTAL_CHARGE>
0

> <PUBCHEM_HEAVY_ATOM_COUNT>
41

> <PUBCHEM_ATOM_DEF_STEREO_COUNT>
3

> <PUBCHEM_ATOM_UDEF_STEREO_COUNT>
0

> <PUBCHEM_BOND_DEF_STEREO_COUNT>
0

> <PUBCHEM_BOND_UDEF_STEREO_COUNT>
0

> <PUBCHEM_ISOTOPIC_ATOM_COUNT>
0

> <PUBCHEM_COMPONENT_COUNT>
1

> <PUBCHEM_CACTVS_TAUTO_COUNT>
-1

> <PUBCHEM_COORDINATE_TYPE>
1
5
255

> <PUBCHEM_BONDANNOTATIONS>
14  10  6
10  16  8
10  20  8
11  21  8
11  28  8
16  18  8
16  21  8
18  22  8
18  23  8
19  27  6
17  2  5
20  22  8
20  30  8
21  24  8
22  32  8
23  25  8
24  25  8
24  26  8
26  28  8
26  35  8
28  36  8
30  33  8
32  34  8
33  34  8
35  38  8
36  39  8
38  39  8

$$$$
