25164272
  -OEChem-03202502162D

 44 48  0     0  0  0  0  0  0999 V2000
   10.2916   -1.9894    0.0000 N   0  0  0  0  0  0  0  0  0  0  0  0
    5.1646    0.1517    0.0000 N   0  0  0  0  0  0  0  0  0  0  0  0
   10.8752   -1.1847    0.0000 N   0  0  0  0  0  0  0  0  0  0  0  0
    6.6428    0.8098    0.0000 N   0  0  0  0  0  0  0  0  0  0  0  0
    5.6646    1.0177    0.0000 N   0  0  0  0  0  0  0  0  0  0  0  0
    9.3454   -0.6847    0.0000 C   0  0  0  0  0  0  0  0  0  0  0  0
    9.3454   -1.6847    0.0000 C   0  0  0  0  0  0  0  0  0  0  0  0
    7.6133   -0.6847    0.0000 C   0  0  0  0  0  0  0  0  0  0  0  0
   10.2916   -0.3800    0.0000 C   0  0  0  0  0  0  0  0  0  0  0  0
    8.4793   -0.1847    0.0000 C   0  0  0  0  0  0  0  0  0  0  0  0
    6.7473   -0.1847    0.0000 C   0  0  0  0  0  0  0  0  0  0  0  0
    8.4793   -2.1847    0.0000 C   0  0  0  0  0  0  0  0  0  0  0  0
    7.6133   -1.6847    0.0000 C   0  0  0  0  0  0  0  0  0  0  0  0
   10.6022    0.5706    0.0000 C   0  0  0  0  0  0  0  0  0  0  0  0
    4.1701    0.0472    0.0000 C   0  0  0  0  0  0  0  0  0  0  0  0
    5.8338   -0.5914    0.0000 C   0  0  0  0  0  0  0  0  0  0  0  0
    3.5823    0.8562    0.0000 C   0  0  0  0  0  0  0  0  0  0  0  0
    9.9344    1.3148    0.0000 C   0  0  0  0  0  0  0  0  0  0  0  0
   11.5808    0.7768    0.0000 C   0  0  0  0  0  0  0  0  0  0  0  0
    2.5878    0.7517    0.0000 C   0  0  0  0  0  0  0  0  0  0  0  0
    3.9890    1.7697    0.0000 C   0  0  0  0  0  0  0  0  0  0  0  0
   10.2451    2.2654    0.0000 C   0  0  0  0  0  0  0  0  0  0  0  0
   11.8914    1.7273    0.0000 C   0  0  0  0  0  0  0  0  0  0  0  0
   11.2236    2.4716    0.0000 C   0  0  0  0  0  0  0  0  0  0  0  0
    2.0000    1.5607    0.0000 C   0  0  0  0  0  0  0  0  0  0  0  0
    3.4013    2.5788    0.0000 C   0  0  0  0  0  0  0  0  0  0  0  0
    2.4067    2.4742    0.0000 C   0  0  0  0  0  0  0  0  0  0  0  0
    8.4793    0.4353    0.0000 H   0  0  0  0  0  0  0  0  0  0  0  0
    8.4793   -2.8047    0.0000 H   0  0  0  0  0  0  0  0  0  0  0  0
    7.0764   -1.9947    0.0000 H   0  0  0  0  0  0  0  0  0  0  0  0
   10.4842   -2.5788    0.0000 H   0  0  0  0  0  0  0  0  0  0  0  0
    3.6128   -0.2246    0.0000 H   0  0  0  0  0  0  0  0  0  0  0  0
    4.3410   -0.5488    0.0000 H   0  0  0  0  0  0  0  0  0  0  0  0
    5.7048   -1.1979    0.0000 H   0  0  0  0  0  0  0  0  0  0  0  0
    9.3277    1.1870    0.0000 H   0  0  0  0  0  0  0  0  0  0  0  0
   11.9948    0.3153    0.0000 H   0  0  0  0  0  0  0  0  0  0  0  0
    2.3356    0.1853    0.0000 H   0  0  0  0  0  0  0  0  0  0  0  0
    4.6056    1.8346    0.0000 H   0  0  0  0  0  0  0  0  0  0  0  0
    9.8310    2.7268    0.0000 H   0  0  0  0  0  0  0  0  0  0  0  0
   12.4981    1.8551    0.0000 H   0  0  0  0  0  0  0  0  0  0  0  0
   11.4162    3.0609    0.0000 H   0  0  0  0  0  0  0  0  0  0  0  0
    1.3834    1.4959    0.0000 H   0  0  0  0  0  0  0  0  0  0  0  0
    3.6534    3.1452    0.0000 H   0  0  0  0  0  0  0  0  0  0  0  0
    2.0423    2.9758    0.0000 H   0  0  0  0  0  0  0  0  0  0  0  0
  1  3  1  0  0  0  0
  1  7  1  0  0  0  0
  1 31  1  0  0  0  0
  2  5  1  0  0  0  0
  2 15  1  0  0  0  0
  2 16  1  0  0  0  0
  3  9  2  0  0  0  0
  4  5  2  0  0  0  0
  4 11  1  0  0  0  0
  6  7  2  0  0  0  0
  6  9  1  0  0  0  0
  6 10  1  0  0  0  0
  7 12  1  0  0  0  0
  8 10  2  0  0  0  0
  8 11  1  0  0  0  0
  8 13  1  0  0  0  0
  9 14  1  0  0  0  0
 10 28  1  0  0  0  0
 11 16  2  0  0  0  0
 12 13  2  0  0  0  0
 12 29  1  0  0  0  0
 13 30  1  0  0  0  0
 14 18  2  0  0  0  0
 14 19  1  0  0  0  0
 15 17  1  0  0  0  0
 15 32  1  0  0  0  0
 15 33  1  0  0  0  0
 16 34  1  0  0  0  0
 17 20  2  0  0  0  0
 17 21  1  0  0  0  0
 18 22  1  0  0  0  0
 18 35  1  0  0  0  0
 19 23  2  0  0  0  0
 19 36  1  0  0  0  0
 20 25  1  0  0  0  0
 20 37  1  0  0  0  0
 21 26  2  0  0  0  0
 21 38  1  0  0  0  0
 22 24  2  0  0  0  0
 22 39  1  0  0  0  0
 23 24  1  0  0  0  0
 23 40  1  0  0  0  0
 24 41  1  0  0  0  0
 25 27  2  0  0  0  0
 25 42  1  0  0  0  0
 26 27  1  0  0  0  0
 26 43  1  0  0  0  0
 27 44  1  0  0  0  0
M  END
> <PUBCHEM_COMPOUND_CID>
25164272

> <PUBCHEM_COMPOUND_CANONICALIZED>
1

> <PUBCHEM_CACTVS_COMPLEXITY>
473

> <PUBCHEM_CACTVS_HBOND_ACCEPTOR>
3

> <PUBCHEM_CACTVS_HBOND_DONOR>
1

> <PUBCHEM_CACTVS_ROTATABLE_BOND>
4

> <PUBCHEM_CACTVS_SUBSKEYS>
AAADceB7gAAAAAAAAAAAAAAAAAAAAWLAAAAwYMAAAAAAAFgB/AAAHAAYAAAADAjBHgQ8wPJrAACiAzRnRACSBAQxkgAY+SA4dJgIYKLA0dGUpAhgmADIyAcQgMAOCAACAAACAAAQAAQAAAQAAAAAAAAAAA==

> <PUBCHEM_IUPAC_OPENEYE_NAME>
5-(1-benzyltriazol-4-yl)-3-phenyl-1H-indazole

> <PUBCHEM_IUPAC_CAS_NAME>
3-phenyl-5-[1-(phenylmethyl)-4-triazolyl]-1H-indazole

> <PUBCHEM_IUPAC_NAME_MARKUP>
5-(1-benzyltriazol-4-yl)-3-phenyl-1<I>H</I>-indazole

> <PUBCHEM_IUPAC_NAME>
5-(1-benzyltriazol-4-yl)-3-phenyl-1H-indazole

> <PUBCHEM_IUPAC_SYSTEMATIC_NAME>
3-phenyl-5-[1-(phenylmethyl)-1,2,3-triazol-4-yl]-1H-indazole

> <PUBCHEM_IUPAC_TRADITIONAL_NAME>
5-(1-benzyltriazol-4-yl)-3-phenyl-1H-indazole

> <PUBCHEM_IUPAC_INCHI>
InChI=1S/C22H17N5/c1-3-7-16(8-4-1)14-27-15-21(24-26-27)18-11-12-20-19(13-18)22(25-23-20)17-9-5-2-6-10-17/h1-13,15H,14H2,(H,23,25)

> <PUBCHEM_IUPAC_INCHIKEY>
AGYZUONRISUOIK-UHFFFAOYSA-N

> <PUBCHEM_XLOGP3_AA>
4.2

> <PUBCHEM_EXACT_MASS>
351.14839556

> <PUBCHEM_MOLECULAR_FORMULA>
C22H17N5

> <PUBCHEM_MOLECULAR_WEIGHT>
351.4

> <PUBCHEM_SMILES>
C1=CC=C(C=C1)CN2C=C(N=N2)C3=CC4=C(C=C3)NN=C4C5=CC=CC=C5

> <PUBCHEM_OPENEYE_CAN_SMILES>
C1=CC=C(C=C1)CN2C=C(N=N2)C3=CC4=C(C=C3)NN=C4C5=CC=CC=C5

> <PUBCHEM_OPENEYE_ISO_SMILES>
C1=CC=C(C=C1)CN2C=C(N=N2)C3=CC4=C(C=C3)NN=C4C5=CC=CC=C5

> <PUBCHEM_CACTVS_TPSA>
59.4

> <PUBCHEM_MONOISOTOPIC_WEIGHT>
351.14839556

> <PUBCHEM_TOTAL_CHARGE>
0

> <PUBCHEM_HEAVY_ATOM_COUNT>
27

> <PUBCHEM_ATOM_DEF_STEREO_COUNT>
0

> <PUBCHEM_ATOM_UDEF_STEREO_COUNT>
0

> <PUBCHEM_BOND_DEF_STEREO_COUNT>
0

> <PUBCHEM_BOND_UDEF_STEREO_COUNT>
0

> <PUBCHEM_ISOTOPIC_ATOM_COUNT>
0

> <PUBCHEM_COMPONENT_COUNT>
1

> <PUBCHEM_CACTVS_TAUTO_COUNT>
-1

> <PUBCHEM_COORDINATE_TYPE>
1
5
255

> <PUBCHEM_BONDANNOTATIONS>
1  3  8
1  7  8
11  16  8
12  13  8
14  18  8
14  19  8
17  20  8
17  21  8
18  22  8
19  23  8
2  16  8
2  5  8
20  25  8
21  26  8
22  24  8
23  24  8
25  27  8
26  27  8
3  9  8
4  11  8
4  5  8
6  10  8
6  7  8
6  9  8
7  12  8
8  10  8
8  13  8

$$$$
