15289412
  -OEChem-03202505412D

 59 63  0     0  0  0  0  0  0999 V2000
    3.9639   -2.9368    0.0000 S   0  0  0  0  0  0  0  0  0  0  0  0
    3.4026    3.8246    0.0000 O   0  0  0  0  0  0  0  0  0  0  0  0
    6.7523    4.9066    0.0000 O   0  0  0  0  0  0  0  0  0  0  0  0
    4.6783    0.4529    0.0000 N   0  0  0  0  0  0  0  0  0  0  0  0
    4.9917    4.6309    0.0000 N   0  0  0  0  0  0  0  0  0  0  0  0
    3.6067   -4.6316    0.0000 N   0  0  0  0  0  0  0  0  0  0  0  0
    5.2531   -4.0935    0.0000 N   0  0  0  0  0  0  0  0  0  0  0  0
    5.2619    1.2576    0.0000 C   0  0  0  0  0  0  0  0  0  0  0  0
    4.6783    2.0624    0.0000 C   0  0  0  0  0  0  0  0  0  0  0  0
    3.7320    0.7576    0.0000 C   0  0  0  0  0  0  0  0  0  0  0  0
    3.7320    1.7576    0.0000 C   0  0  0  0  0  0  0  0  0  0  0  0
    4.9889   -0.4976    0.0000 C   0  0  0  0  0  0  0  0  0  0  0  0
    6.2619    1.2576    0.0000 C   0  0  0  0  0  0  0  0  0  0  0  0
    4.3211   -1.2419    0.0000 C   0  0  0  0  0  0  0  0  0  0  0  0
    4.9889    3.0129    0.0000 C   0  0  0  0  0  0  0  0  0  0  0  0
    2.8660    0.2576    0.0000 C   0  0  0  0  0  0  0  0  0  0  0  0
    2.8660    2.2576    0.0000 C   0  0  0  0  0  0  0  0  0  0  0  0
    4.6318   -2.1924    0.0000 C   0  0  0  0  0  0  0  0  0  0  0  0
    6.7619    2.1236    0.0000 C   0  0  0  0  0  0  0  0  0  0  0  0
    6.7619    0.3916    0.0000 C   0  0  0  0  0  0  0  0  0  0  0  0
    2.0000    0.7576    0.0000 C   0  0  0  0  0  0  0  0  0  0  0  0
    2.0000    1.7576    0.0000 C   0  0  0  0  0  0  0  0  0  0  0  0
    4.4026    3.8229    0.0000 C   0  0  0  0  0  0  0  0  0  0  0  0
    5.9405    3.3202    0.0000 C   0  0  0  0  0  0  0  0  0  0  0  0
    8.2619    1.2576    0.0000 C   0  0  0  0  0  0  0  0  0  0  0  0
    7.7619    2.1236    0.0000 C   0  0  0  0  0  0  0  0  0  0  0  0
    7.7619    0.3916    0.0000 C   0  0  0  0  0  0  0  0  0  0  0  0
    5.9422    4.3202    0.0000 C   0  0  0  0  0  0  0  0  0  0  0  0
    9.2619    1.2576    0.0000 C   0  0  0  0  0  0  0  0  0  0  0  0
    9.7619    2.1236    0.0000 C   0  0  0  0  0  0  0  0  0  0  0  0
    9.7619    0.3916    0.0000 C   0  0  0  0  0  0  0  0  0  0  0  0
    4.2746   -3.8873    0.0000 C   0  0  0  0  0  0  0  0  0  0  0  0
   10.7619    2.1236    0.0000 C   0  0  0  0  0  0  0  0  0  0  0  0
   10.7619    0.3916    0.0000 C   0  0  0  0  0  0  0  0  0  0  0  0
   11.2619    1.2576    0.0000 C   0  0  0  0  0  0  0  0  0  0  0  0
    5.3715   -0.9855    0.0000 H   0  0  0  0  0  0  0  0  0  0  0  0
    5.5359   -0.2056    0.0000 H   0  0  0  0  0  0  0  0  0  0  0  0
    3.9385   -0.7540    0.0000 H   0  0  0  0  0  0  0  0  0  0  0  0
    3.7742   -1.5340    0.0000 H   0  0  0  0  0  0  0  0  0  0  0  0
    2.8660   -0.3624    0.0000 H   0  0  0  0  0  0  0  0  0  0  0  0
    2.8660    2.8776    0.0000 H   0  0  0  0  0  0  0  0  0  0  0  0
    5.0143   -2.6803    0.0000 H   0  0  0  0  0  0  0  0  0  0  0  0
    5.1787   -1.9004    0.0000 H   0  0  0  0  0  0  0  0  0  0  0  0
    6.4519    2.6606    0.0000 H   0  0  0  0  0  0  0  0  0  0  0  0
    6.4519   -0.1453    0.0000 H   0  0  0  0  0  0  0  0  0  0  0  0
    1.4631    0.4476    0.0000 H   0  0  0  0  0  0  0  0  0  0  0  0
    1.4631    2.0676    0.0000 H   0  0  0  0  0  0  0  0  0  0  0  0
    6.4415    2.9550    0.0000 H   0  0  0  0  0  0  0  0  0  0  0  0
    8.0719    2.6606    0.0000 H   0  0  0  0  0  0  0  0  0  0  0  0
    8.0719   -0.1453    0.0000 H   0  0  0  0  0  0  0  0  0  0  0  0
    4.8012    5.2209    0.0000 H   0  0  0  0  0  0  0  0  0  0  0  0
    9.4519    2.6606    0.0000 H   0  0  0  0  0  0  0  0  0  0  0  0
    9.4519   -0.1453    0.0000 H   0  0  0  0  0  0  0  0  0  0  0  0
   11.0719    2.6606    0.0000 H   0  0  0  0  0  0  0  0  0  0  0  0
   11.0719   -0.1453    0.0000 H   0  0  0  0  0  0  0  0  0  0  0  0
   11.8819    1.2576    0.0000 H   0  0  0  0  0  0  0  0  0  0  0  0
    3.7993   -5.2209    0.0000 H   0  0  0  0  0  0  0  0  0  0  0  0
    3.0000   -4.5037    0.0000 H   0  0  0  0  0  0  0  0  0  0  0  0
    5.4457   -4.6828    0.0000 H   0  0  0  0  0  0  0  0  0  0  0  0
  1 18  1  0  0  0  0
  1 32  1  0  0  0  0
  2 23  2  0  0  0  0
  3 28  2  0  0  0  0
  4  8  1  0  0  0  0
  4 10  1  0  0  0  0
  4 12  1  0  0  0  0
  5 23  1  0  0  0  0
  5 28  1  0  0  0  0
  5 51  1  0  0  0  0
  6 32  1  0  0  0  0
  6 57  1  0  0  0  0
  6 58  1  0  0  0  0
  7 32  2  0  0  0  0
  7 59  1  0  0  0  0
  8  9  2  0  0  0  0
  8 13  1  0  0  0  0
  9 11  1  0  0  0  0
  9 15  1  0  0  0  0
 10 11  1  0  0  0  0
 10 16  2  0  0  0  0
 11 17  2  0  0  0  0
 12 14  1  0  0  0  0
 12 36  1  0  0  0  0
 12 37  1  0  0  0  0
 13 19  2  0  0  0  0
 13 20  1  0  0  0  0
 14 18  1  0  0  0  0
 14 38  1  0  0  0  0
 14 39  1  0  0  0  0
 15 23  1  0  0  0  0
 15 24  2  0  0  0  0
 16 21  1  0  0  0  0
 16 40  1  0  0  0  0
 17 22  1  0  0  0  0
 17 41  1  0  0  0  0
 18 42  1  0  0  0  0
 18 43  1  0  0  0  0
 19 26  1  0  0  0  0
 19 44  1  0  0  0  0
 20 27  2  0  0  0  0
 20 45  1  0  0  0  0
 21 22  2  0  0  0  0
 21 46  1  0  0  0  0
 22 47  1  0  0  0  0
 24 28  1  0  0  0  0
 24 48  1  0  0  0  0
 25 26  2  0  0  0  0
 25 27  1  0  0  0  0
 25 29  1  0  0  0  0
 26 49  1  0  0  0  0
 27 50  1  0  0  0  0
 29 30  2  0  0  0  0
 29 31  1  0  0  0  0
 30 33  1  0  0  0  0
 30 52  1  0  0  0  0
 31 34  2  0  0  0  0
 31 53  1  0  0  0  0
 33 35  2  0  0  0  0
 33 54  1  0  0  0  0
 34 35  1  0  0  0  0
 34 55  1  0  0  0  0
 35 56  1  0  0  0  0
M  END
> <PUBCHEM_COMPOUND_CID>
15289412

> <PUBCHEM_COMPOUND_CANONICALIZED>
1

> <PUBCHEM_CACTVS_COMPLEXITY>
831

> <PUBCHEM_CACTVS_HBOND_ACCEPTOR>
4

> <PUBCHEM_CACTVS_HBOND_DONOR>
3

> <PUBCHEM_CACTVS_ROTATABLE_BOND>
8

> <PUBCHEM_CACTVS_SUBSKEYS>
AAADceB7sABAAAAAAAAAAAAAAAAAAWIAAAAwYMAAAAAAAFgB9AAAHgQQAAAADAjF3gSxwPPMEAioAyVydACCgiDhAjAI2CE4ZNgIIPLglZGEIAhglCDIyYccicCewAAAAAACAACAAAAAAAQAAAAAAAAAAA==

> <PUBCHEM_IUPAC_OPENEYE_NAME>
2-[3-[3-(2,5-dioxopyrrol-3-yl)-2-(4-phenylphenyl)indol-1-yl]propyl]isothiourea

> <PUBCHEM_IUPAC_CAS_NAME>
carbamimidothioic acid 3-[3-(2,5-dioxo-3-pyrrolyl)-2-(4-phenylphenyl)-1-indolyl]propyl ester

> <PUBCHEM_IUPAC_NAME_MARKUP>
3-[3-(2,5-dioxopyrrol-3-yl)-2-(4-phenylphenyl)indol-1-yl]propyl carbamimidothioate

> <PUBCHEM_IUPAC_NAME>
3-[3-(2,5-dioxopyrrol-3-yl)-2-(4-phenylphenyl)indol-1-yl]propyl carbamimidothioate

> <PUBCHEM_IUPAC_SYSTEMATIC_NAME>
3-[3-[2,5-bis(oxidanylidene)pyrrol-3-yl]-2-(4-phenylphenyl)indol-1-yl]propyl carbamimidothioate

> <PUBCHEM_IUPAC_TRADITIONAL_NAME>
2-[3-[3-(2,5-diketo-3-pyrrolin-3-yl)-2-(4-phenylphenyl)indol-1-yl]propyl]isothiourea

> <PUBCHEM_IUPAC_INCHI>
InChI=1S/C28H24N4O2S/c29-28(30)35-16-6-15-32-23-10-5-4-9-21(23)25(22-17-24(33)31-27(22)34)26(32)20-13-11-19(12-14-20)18-7-2-1-3-8-18/h1-5,7-14,17H,6,15-16H2,(H3,29,30)(H,31,33,34)

> <PUBCHEM_IUPAC_INCHIKEY>
UUCJUCRTIKZRFG-UHFFFAOYSA-N

> <PUBCHEM_XLOGP3_AA>
4.5

> <PUBCHEM_EXACT_MASS>
480.16199719

> <PUBCHEM_MOLECULAR_FORMULA>
C28H24N4O2S

> <PUBCHEM_MOLECULAR_WEIGHT>
480.6

> <PUBCHEM_SMILES>
C1=CC=C(C=C1)C2=CC=C(C=C2)C3=C(C4=CC=CC=C4N3CCCSC(=N)N)C5=CC(=O)NC5=O

> <PUBCHEM_OPENEYE_CAN_SMILES>
C1=CC=C(C=C1)C2=CC=C(C=C2)C3=C(C4=CC=CC=C4N3CCCSC(=N)N)C5=CC(=O)NC5=O

> <PUBCHEM_OPENEYE_ISO_SMILES>
C1=CC=C(C=C1)C2=CC=C(C=C2)C3=C(C4=CC=CC=C4N3CCCSC(=N)N)C5=CC(=O)NC5=O

> <PUBCHEM_CACTVS_TPSA>
126

> <PUBCHEM_MONOISOTOPIC_WEIGHT>
480.16199719

> <PUBCHEM_TOTAL_CHARGE>
0

> <PUBCHEM_HEAVY_ATOM_COUNT>
35

> <PUBCHEM_ATOM_DEF_STEREO_COUNT>
0

> <PUBCHEM_ATOM_UDEF_STEREO_COUNT>
0

> <PUBCHEM_BOND_DEF_STEREO_COUNT>
0

> <PUBCHEM_BOND_UDEF_STEREO_COUNT>
0

> <PUBCHEM_ISOTOPIC_ATOM_COUNT>
0

> <PUBCHEM_COMPONENT_COUNT>
1

> <PUBCHEM_CACTVS_TAUTO_COUNT>
-1

> <PUBCHEM_COORDINATE_TYPE>
1
5
255

> <PUBCHEM_BONDANNOTATIONS>
10  11  8
10  16  8
11  17  8
13  19  8
13  20  8
16  21  8
17  22  8
19  26  8
20  27  8
21  22  8
25  26  8
25  27  8
29  30  8
29  31  8
30  33  8
31  34  8
33  35  8
34  35  8
4  10  8
4  8  8
8  9  8
9  11  8

$$$$
