49830799
  -OEChem-03202504112D

 49 53  0     0  0  0  0  0  0999 V2000
    2.0000   -0.4058    0.0000 S   0  0  0  0  0  0  0  0  0  0  0  0
    6.2218   -3.3355    0.0000 F   0  0  0  0  0  0  0  0  0  0  0  0
    7.3578    3.3355    0.0000 F   0  0  0  0  0  0  0  0  0  0  0  0
    8.0341   -0.5308    0.0000 N   0  0  0  0  0  0  0  0  0  0  0  0
    3.5762   -0.7423    0.0000 N   0  0  0  0  0  0  0  0  0  0  0  0
    8.0341   -2.1402    0.0000 N   0  0  0  0  0  0  0  0  0  0  0  0
    3.4071    0.8669    0.0000 N   0  0  0  0  0  0  0  0  0  0  0  0
    9.6177   -1.3355    0.0000 N   0  0  0  0  0  0  0  0  0  0  0  0
    8.3447    0.4197    0.0000 C   0  0  0  0  0  0  0  0  0  0  0  0
    9.3232    0.6259    0.0000 C   0  0  0  0  0  0  0  0  0  0  0  0
    7.0878   -0.8355    0.0000 C   0  0  0  0  0  0  0  0  0  0  0  0
    7.0878   -1.8355    0.0000 C   0  0  0  0  0  0  0  0  0  0  0  0
    5.3558   -0.8355    0.0000 C   0  0  0  0  0  0  0  0  0  0  0  0
    6.2218   -0.3355    0.0000 C   0  0  0  0  0  0  0  0  0  0  0  0
    4.4898   -0.3355    0.0000 C   0  0  0  0  0  0  0  0  0  0  0  0
    8.6177   -1.3355    0.0000 C   0  0  0  0  0  0  0  0  0  0  0  0
    9.6339    1.5765    0.0000 C   0  0  0  0  0  0  0  0  0  0  0  0
    9.9911   -0.1184    0.0000 C   0  0  0  0  0  0  0  0  0  0  0  0
    6.2218   -2.3355    0.0000 C   0  0  0  0  0  0  0  0  0  0  0  0
    5.3558   -1.8355    0.0000 C   0  0  0  0  0  0  0  0  0  0  0  0
    4.3852    0.6590    0.0000 C   0  0  0  0  0  0  0  0  0  0  0  0
    2.9071    0.0009    0.0000 C   0  0  0  0  0  0  0  0  0  0  0  0
    5.1284    1.3281    0.0000 C   0  0  0  0  0  0  0  0  0  0  0  0
    3.0769   -1.6019    0.0000 C   0  0  0  0  0  0  0  0  0  0  0  0
    2.1048   -1.3943    0.0000 C   0  0  0  0  0  0  0  0  0  0  0  0
    6.0794    1.0191    0.0000 C   0  0  0  0  0  0  0  0  0  0  0  0
    4.9205    2.3063    0.0000 C   0  0  0  0  0  0  0  0  0  0  0  0
    6.8226    1.6882    0.0000 C   0  0  0  0  0  0  0  0  0  0  0  0
    5.6636    2.9754    0.0000 C   0  0  0  0  0  0  0  0  0  0  0  0
    6.6147    2.6664    0.0000 C   0  0  0  0  0  0  0  0  0  0  0  0
    8.3242    1.0394    0.0000 H   0  0  0  0  0  0  0  0  0  0  0  0
    7.7309    0.5071    0.0000 H   0  0  0  0  0  0  0  0  0  0  0  0
    9.1306    0.0366    0.0000 H   0  0  0  0  0  0  0  0  0  0  0  0
    6.2218    0.2845    0.0000 H   0  0  0  0  0  0  0  0  0  0  0  0
   10.2232    1.3839    0.0000 H   0  0  0  0  0  0  0  0  0  0  0  0
    9.8265    2.1658    0.0000 H   0  0  0  0  0  0  0  0  0  0  0  0
    9.0446    1.7691    0.0000 H   0  0  0  0  0  0  0  0  0  0  0  0
    9.5296   -0.5324    0.0000 H   0  0  0  0  0  0  0  0  0  0  0  0
   10.4051   -0.5798    0.0000 H   0  0  0  0  0  0  0  0  0  0  0  0
   10.4525    0.2957    0.0000 H   0  0  0  0  0  0  0  0  0  0  0  0
    4.8188   -2.1455    0.0000 H   0  0  0  0  0  0  0  0  0  0  0  0
    3.3281   -2.1687    0.0000 H   0  0  0  0  0  0  0  0  0  0  0  0
    9.9277   -1.8725    0.0000 H   0  0  0  0  0  0  0  0  0  0  0  0
    9.9277   -0.7986    0.0000 H   0  0  0  0  0  0  0  0  0  0  0  0
    1.6440   -1.8092    0.0000 H   0  0  0  0  0  0  0  0  0  0  0  0
    6.2083    0.4127    0.0000 H   0  0  0  0  0  0  0  0  0  0  0  0
    4.3308    2.4979    0.0000 H   0  0  0  0  0  0  0  0  0  0  0  0
    7.4122    1.4966    0.0000 H   0  0  0  0  0  0  0  0  0  0  0  0
    5.5347    3.5819    0.0000 H   0  0  0  0  0  0  0  0  0  0  0  0
  1 22  1  0  0  0  0
  1 25  1  0  0  0  0
  2 19  1  0  0  0  0
  3 30  1  0  0  0  0
  4  9  1  0  0  0  0
  4 11  1  0  0  0  0
  4 16  1  0  0  0  0
  5 15  1  0  0  0  0
  5 22  1  0  0  0  0
  5 24  1  0  0  0  0
  6 12  1  0  0  0  0
  6 16  2  0  0  0  0
  7 21  1  0  0  0  0
  7 22  2  0  0  0  0
  8 16  1  0  0  0  0
  8 43  1  0  0  0  0
  8 44  1  0  0  0  0
  9 10  1  0  0  0  0
  9 31  1  0  0  0  0
  9 32  1  0  0  0  0
 10 17  1  0  0  0  0
 10 18  1  0  0  0  0
 10 33  1  0  0  0  0
 11 12  2  0  0  0  0
 11 14  1  0  0  0  0
 12 19  1  0  0  0  0
 13 14  2  0  0  0  0
 13 15  1  0  0  0  0
 13 20  1  0  0  0  0
 14 34  1  0  0  0  0
 15 21  2  0  0  0  0
 17 35  1  0  0  0  0
 17 36  1  0  0  0  0
 17 37  1  0  0  0  0
 18 38  1  0  0  0  0
 18 39  1  0  0  0  0
 18 40  1  0  0  0  0
 19 20  2  0  0  0  0
 20 41  1  0  0  0  0
 21 23  1  0  0  0  0
 23 26  2  0  0  0  0
 23 27  1  0  0  0  0
 24 25  2  0  0  0  0
 24 42  1  0  0  0  0
 25 45  1  0  0  0  0
 26 28  1  0  0  0  0
 26 46  1  0  0  0  0
 27 29  2  0  0  0  0
 27 47  1  0  0  0  0
 28 30  2  0  0  0  0
 28 48  1  0  0  0  0
 29 30  1  0  0  0  0
 29 49  1  0  0  0  0
M  END
> <PUBCHEM_COMPOUND_CID>
49830799

> <PUBCHEM_COMPOUND_CANONICALIZED>
1

> <PUBCHEM_CACTVS_COMPLEXITY>
604

> <PUBCHEM_CACTVS_HBOND_ACCEPTOR>
6

> <PUBCHEM_CACTVS_HBOND_DONOR>
1

> <PUBCHEM_CACTVS_ROTATABLE_BOND>
4

> <PUBCHEM_CACTVS_SUBSKEYS>
AAADceB7gYBAAAAAAAAAAAAAAAAAAWLFgAAwYAAAAAAWAFgB/gAAHQQQAAAADQjFXgy/0bdMGAikAzRnZACC8K1xGrhJ2Cw4dJiIaOLAmZGUIAhogALIyCcQgMAOCAAAQAAAACAQAACAAAAAQAAAAAAAAA==

> <PUBCHEM_IUPAC_OPENEYE_NAME>
4-fluoro-6-[6-(4-fluorophenyl)imidazo[2,1-b]thiazol-5-yl]-1-isobutyl-benzimidazol-2-amine

> <PUBCHEM_IUPAC_CAS_NAME>
4-fluoro-6-[6-(4-fluorophenyl)-5-imidazo[2,1-b]thiazolyl]-1-(2-methylpropyl)-2-benzimidazolamine

> <PUBCHEM_IUPAC_NAME_MARKUP>
4-fluoro-6-[6-(4-fluorophenyl)imidazo[2,1-b][1,3]thiazol-5-yl]-1-(2-methylpropyl)benzimidazol-2-amine

> <PUBCHEM_IUPAC_NAME>
4-fluoro-6-[6-(4-fluorophenyl)imidazo[2,1-b][1,3]thiazol-5-yl]-1-(2-methylpropyl)benzimidazol-2-amine

> <PUBCHEM_IUPAC_SYSTEMATIC_NAME>
4-fluoranyl-6-[6-(4-fluorophenyl)imidazo[2,1-b][1,3]thiazol-5-yl]-1-(2-methylpropyl)benzimidazol-2-amine

> <PUBCHEM_IUPAC_TRADITIONAL_NAME>
[4-fluoro-6-[6-(4-fluorophenyl)imidazo[2,1-b]thiazol-5-yl]-1-isobutyl-benzimidazol-2-yl]amine

> <PUBCHEM_IUPAC_INCHI>
InChI=1S/C22H19F2N5S/c1-12(2)11-29-17-10-14(9-16(24)19(17)26-21(29)25)20-18(13-3-5-15(23)6-4-13)27-22-28(20)7-8-30-22/h3-10,12H,11H2,1-2H3,(H2,25,26)

> <PUBCHEM_IUPAC_INCHIKEY>
AKWVKIGCMCHYJT-UHFFFAOYSA-N

> <PUBCHEM_XLOGP3_AA>
5.8

> <PUBCHEM_EXACT_MASS>
423.13292312

> <PUBCHEM_MOLECULAR_FORMULA>
C22H19F2N5S

> <PUBCHEM_MOLECULAR_WEIGHT>
423.5

> <PUBCHEM_SMILES>
CC(C)CN1C2=C(C(=CC(=C2)C3=C(N=C4N3C=CS4)C5=CC=C(C=C5)F)F)N=C1N

> <PUBCHEM_OPENEYE_CAN_SMILES>
CC(C)CN1C2=C(C(=CC(=C2)C3=C(N=C4N3C=CS4)C5=CC=C(C=C5)F)F)N=C1N

> <PUBCHEM_OPENEYE_ISO_SMILES>
CC(C)CN1C2=C(C(=CC(=C2)C3=C(N=C4N3C=CS4)C5=CC=C(C=C5)F)F)N=C1N

> <PUBCHEM_CACTVS_TPSA>
89.4

> <PUBCHEM_MONOISOTOPIC_WEIGHT>
423.13292312

> <PUBCHEM_TOTAL_CHARGE>
0

> <PUBCHEM_HEAVY_ATOM_COUNT>
30

> <PUBCHEM_ATOM_DEF_STEREO_COUNT>
0

> <PUBCHEM_ATOM_UDEF_STEREO_COUNT>
0

> <PUBCHEM_BOND_DEF_STEREO_COUNT>
0

> <PUBCHEM_BOND_UDEF_STEREO_COUNT>
0

> <PUBCHEM_ISOTOPIC_ATOM_COUNT>
0

> <PUBCHEM_COMPONENT_COUNT>
1

> <PUBCHEM_CACTVS_TAUTO_COUNT>
-1

> <PUBCHEM_COORDINATE_TYPE>
1
5
255

> <PUBCHEM_BONDANNOTATIONS>
1  22  8
1  25  8
11  12  8
11  14  8
12  19  8
13  14  8
13  20  8
15  21  8
19  20  8
23  26  8
23  27  8
24  25  8
26  28  8
27  29  8
28  30  8
29  30  8
4  11  8
4  16  8
5  15  8
5  22  8
5  24  8
6  12  8
6  16  8
7  21  8
7  22  8

$$$$
