135655504
  -OEChem-03202502102D

 32 35  0     0  0  0  0  0  0999 V2000
    8.9989   -0.6966    0.0000 S   0  0  0  0  0  0  0  0  0  0  0  0
    7.3958    2.4704    0.0000 O   0  0  0  0  0  0  0  0  0  0  0  0
    6.5298    0.9704    0.0000 N   0  0  0  0  0  0  0  0  0  0  0  0
    8.2619    0.9704    0.0000 N   0  0  0  0  0  0  0  0  0  0  0  0
    5.5836   -0.3343    0.0000 N   0  0  0  0  0  0  0  0  0  0  0  0
    5.5836    1.2752    0.0000 N   0  0  0  0  0  0  0  0  0  0  0  0
    2.0000    0.4704    0.0000 N   0  0  0  0  0  0  0  0  0  0  0  0
    7.3958   -0.5296    0.0000 C   0  0  0  0  0  0  0  0  0  0  0  0
    7.6051   -1.5014    0.0000 C   0  0  0  0  0  0  0  0  0  0  0  0
    6.5298   -0.0296    0.0000 C   0  0  0  0  0  0  0  0  0  0  0  0
    8.2619   -0.0296    0.0000 C   0  0  0  0  0  0  0  0  0  0  0  0
    8.5938   -1.6044    0.0000 C   0  0  0  0  0  0  0  0  0  0  0  0
    7.3958    1.4704    0.0000 C   0  0  0  0  0  0  0  0  0  0  0  0
    6.9372   -2.2457    0.0000 C   0  0  0  0  0  0  0  0  0  0  0  0
    5.0000    0.4704    0.0000 C   0  0  0  0  0  0  0  0  0  0  0  0
    9.0938   -2.4704    0.0000 C   0  0  0  0  0  0  0  0  0  0  0  0
    4.0000    0.4704    0.0000 C   0  0  0  0  0  0  0  0  0  0  0  0
    3.5000    1.3365    0.0000 C   0  0  0  0  0  0  0  0  0  0  0  0
    3.5000   -0.3956    0.0000 C   0  0  0  0  0  0  0  0  0  0  0  0
    2.5000    1.3365    0.0000 C   0  0  0  0  0  0  0  0  0  0  0  0
    2.5000   -0.3956    0.0000 C   0  0  0  0  0  0  0  0  0  0  0  0
    8.7988    1.2804    0.0000 H   0  0  0  0  0  0  0  0  0  0  0  0
    6.4758   -1.8316    0.0000 H   0  0  0  0  0  0  0  0  0  0  0  0
    6.5232   -2.7071    0.0000 H   0  0  0  0  0  0  0  0  0  0  0  0
    7.3987   -2.6597    0.0000 H   0  0  0  0  0  0  0  0  0  0  0  0
    8.5569   -2.7804    0.0000 H   0  0  0  0  0  0  0  0  0  0  0  0
    9.4038   -3.0074    0.0000 H   0  0  0  0  0  0  0  0  0  0  0  0
    9.6307   -2.1604    0.0000 H   0  0  0  0  0  0  0  0  0  0  0  0
    3.8100    1.8734    0.0000 H   0  0  0  0  0  0  0  0  0  0  0  0
    3.8100   -0.9325    0.0000 H   0  0  0  0  0  0  0  0  0  0  0  0
    2.1900    1.8734    0.0000 H   0  0  0  0  0  0  0  0  0  0  0  0
    2.1900   -0.9325    0.0000 H   0  0  0  0  0  0  0  0  0  0  0  0
  1 11  1  0  0  0  0
  1 12  1  0  0  0  0
  2 13  2  0  0  0  0
  3  6  1  0  0  0  0
  3 10  1  0  0  0  0
  3 13  1  0  0  0  0
  4 11  1  0  0  0  0
  4 13  1  0  0  0  0
  4 22  1  0  0  0  0
  5 10  2  0  0  0  0
  5 15  1  0  0  0  0
  6 15  2  0  0  0  0
  7 20  2  0  0  0  0
  7 21  1  0  0  0  0
  8  9  1  0  0  0  0
  8 10  1  0  0  0  0
  8 11  2  0  0  0  0
  9 12  2  0  0  0  0
  9 14  1  0  0  0  0
 12 16  1  0  0  0  0
 14 23  1  0  0  0  0
 14 24  1  0  0  0  0
 14 25  1  0  0  0  0
 15 17  1  0  0  0  0
 16 26  1  0  0  0  0
 16 27  1  0  0  0  0
 16 28  1  0  0  0  0
 17 18  2  0  0  0  0
 17 19  1  0  0  0  0
 18 20  1  0  0  0  0
 18 29  1  0  0  0  0
 19 21  2  0  0  0  0
 19 30  1  0  0  0  0
 20 31  1  0  0  0  0
 21 32  1  0  0  0  0
M  END
> <PUBCHEM_COMPOUND_CID>
135655504

> <PUBCHEM_COMPOUND_CANONICALIZED>
1

> <PUBCHEM_CACTVS_COMPLEXITY>
430

> <PUBCHEM_CACTVS_HBOND_ACCEPTOR>
5

> <PUBCHEM_CACTVS_HBOND_DONOR>
1

> <PUBCHEM_CACTVS_ROTATABLE_BOND>
1

> <PUBCHEM_CACTVS_SUBSKEYS>
AAADccBzoABAAAAAAAAAAAAAAAAAAWJAAAAsWAAAAAAAAFgB+AAAHgQYAAAADADBWwQ/kZbIEAiuAjJndACTgKtxCrkf2DA4ZJiIKOLg2ZGEIAh4jQLoyCYQAAAOgAAAAAAAAAAAAAAAAAAAAAAAAAAAAA==

> <PUBCHEM_IUPAC_OPENEYE_NAME>
11,12-dimethyl-4-(4-pyridyl)-10-thia-3,5,6,8-tetrazatricyclo[7.3.0.02,6]dodeca-1(9),2,4,11-tetraen-7-one

> <PUBCHEM_IUPAC_CAS_NAME>
11,12-dimethyl-4-pyridin-4-yl-10-thia-3,5,6,8-tetrazatricyclo[7.3.0.02,6]dodeca-1(9),2,4,11-tetraen-7-one

> <PUBCHEM_IUPAC_NAME_MARKUP>
11,12-dimethyl-4-pyridin-4-yl-10-thia-3,5,6,8-tetrazatricyclo[7.3.0.0<SUP>2,6</SUP>]dodeca-1(9),2,4,11-tetraen-7-one

> <PUBCHEM_IUPAC_NAME>
11,12-dimethyl-4-pyridin-4-yl-10-thia-3,5,6,8-tetrazatricyclo[7.3.0.02,6]dodeca-1(9),2,4,11-tetraen-7-one

> <PUBCHEM_IUPAC_SYSTEMATIC_NAME>
11,12-dimethyl-4-pyridin-4-yl-10-thia-3,5,6,8-tetrazatricyclo[7.3.0.02,6]dodeca-1(9),2,4,11-tetraen-7-one

> <PUBCHEM_IUPAC_TRADITIONAL_NAME>
11,12-dimethyl-4-(4-pyridyl)-10-thia-3,5,6,8-tetrazatricyclo[7.3.0.02,6]dodeca-1(9),2,4,11-tetraen-7-one

> <PUBCHEM_IUPAC_INCHI>
InChI=1S/C14H11N5OS/c1-7-8(2)21-13-10(7)12-16-11(9-3-5-15-6-4-9)18-19(12)14(20)17-13/h3-6H,1-2H3,(H,17,20)

> <PUBCHEM_IUPAC_INCHIKEY>
MONUZQWCBUZODF-UHFFFAOYSA-N

> <PUBCHEM_XLOGP3_AA>
2.4

> <PUBCHEM_EXACT_MASS>
297.06843116

> <PUBCHEM_MOLECULAR_FORMULA>
C14H11N5OS

> <PUBCHEM_MOLECULAR_WEIGHT>
297.34

> <PUBCHEM_SMILES>
CC1=C(SC2=C1C3=NC(=NN3C(=O)N2)C4=CC=NC=C4)C

> <PUBCHEM_OPENEYE_CAN_SMILES>
CC1=C(SC2=C1C3=NC(=NN3C(=O)N2)C4=CC=NC=C4)C

> <PUBCHEM_OPENEYE_ISO_SMILES>
CC1=C(SC2=C1C3=NC(=NN3C(=O)N2)C4=CC=NC=C4)C

> <PUBCHEM_CACTVS_TPSA>
101

> <PUBCHEM_MONOISOTOPIC_WEIGHT>
297.06843116

> <PUBCHEM_TOTAL_CHARGE>
0

> <PUBCHEM_HEAVY_ATOM_COUNT>
21

> <PUBCHEM_ATOM_DEF_STEREO_COUNT>
0

> <PUBCHEM_ATOM_UDEF_STEREO_COUNT>
0

> <PUBCHEM_BOND_DEF_STEREO_COUNT>
0

> <PUBCHEM_BOND_UDEF_STEREO_COUNT>
0

> <PUBCHEM_ISOTOPIC_ATOM_COUNT>
0

> <PUBCHEM_COMPONENT_COUNT>
1

> <PUBCHEM_CACTVS_TAUTO_COUNT>
-1

> <PUBCHEM_COORDINATE_TYPE>
1
5
255

> <PUBCHEM_BONDANNOTATIONS>
1  11  8
1  12  8
17  18  8
17  19  8
18  20  8
19  21  8
3  10  8
3  13  8
3  6  8
4  11  8
4  13  8
5  10  8
5  15  8
6  15  8
7  20  8
7  21  8
8  10  8
8  11  8
8  9  8
9  12  8

$$$$
