71553085
  -OEChem-03202504552D

 70 73  0     0  0  0  0  0  0999 V2000
   11.5263   -4.5000    0.0000 Cl  0  0  0  0  0  0  0  0  0  0  0  0
    8.0622   -4.5000    0.0000 Cl  0  0  0  0  0  0  0  0  0  0  0  0
    6.3301    1.5000    0.0000 O   0  0  0  0  0  0  0  0  0  0  0  0
   11.5263    3.5000    0.0000 N   0  0  0  0  0  0  0  0  0  0  0  0
    8.0622    1.5000    0.0000 N   0  0  0  0  0  0  0  0  0  0  0  0
    2.8660    1.5000    0.0000 N   0  0  0  0  0  0  0  0  0  0  0  0
    5.4641    0.0000    0.0000 N   0  0  0  0  0  0  0  0  0  0  0  0
    8.9282    0.0000    0.0000 N   0  0  0  0  0  0  0  0  0  0  0  0
    8.0622   -1.5000    0.0000 N   0  0  0  0  0  0  0  0  0  0  0  0
    9.7942   -1.5000    0.0000 N   0  0  0  0  0  0  0  0  0  0  0  0
   10.6603    3.0000    0.0000 C   0  0  0  0  0  0  0  0  0  0  0  0
    8.9282    2.0000    0.0000 C   0  0  0  0  0  0  0  0  0  0  0  0
    9.7942    3.5000    0.0000 C   0  0  0  0  0  0  0  0  0  0  0  0
   10.6603    2.0000    0.0000 C   0  0  0  0  0  0  0  0  0  0  0  0
    8.9282    3.0000    0.0000 C   0  0  0  0  0  0  0  0  0  0  0  0
    9.7942    1.5000    0.0000 C   0  0  0  0  0  0  0  0  0  0  0  0
    4.5981    0.5000    0.0000 C   0  0  0  0  0  0  0  0  0  0  0  0
    4.5981    1.5000    0.0000 C   0  0  0  0  0  0  0  0  0  0  0  0
    3.7320    0.0000    0.0000 C   0  0  0  0  0  0  0  0  0  0  0  0
    3.7320    2.0000    0.0000 C   0  0  0  0  0  0  0  0  0  0  0  0
    2.8660    0.5000    0.0000 C   0  0  0  0  0  0  0  0  0  0  0  0
   11.5263    4.5000    0.0000 C   0  0  0  0  0  0  0  0  0  0  0  0
   12.3923    3.0000    0.0000 C   0  0  0  0  0  0  0  0  0  0  0  0
    8.0622    0.5000    0.0000 C   0  0  0  0  0  0  0  0  0  0  0  0
    7.1962    0.0000    0.0000 C   0  0  0  0  0  0  0  0  0  0  0  0
    6.3301    0.5000    0.0000 C   0  0  0  0  0  0  0  0  0  0  0  0
    2.0000    2.0000    0.0000 C   0  0  0  0  0  0  0  0  0  0  0  0
    7.1962   -1.0000    0.0000 C   0  0  0  0  0  0  0  0  0  0  0  0
    8.9282   -1.0000    0.0000 C   0  0  0  0  0  0  0  0  0  0  0  0
    9.7942   -2.5000    0.0000 C   0  0  0  0  0  0  0  0  0  0  0  0
    8.9282   -3.0000    0.0000 C   0  0  0  0  0  0  0  0  0  0  0  0
   10.6603   -3.0000    0.0000 C   0  0  0  0  0  0  0  0  0  0  0  0
   10.6603   -4.0000    0.0000 C   0  0  0  0  0  0  0  0  0  0  0  0
    8.9282   -4.0000    0.0000 C   0  0  0  0  0  0  0  0  0  0  0  0
    9.7942   -4.5000    0.0000 C   0  0  0  0  0  0  0  0  0  0  0  0
   11.1972    2.6900    0.0000 H   0  0  0  0  0  0  0  0  0  0  0  0
    8.9282    1.3800    0.0000 H   0  0  0  0  0  0  0  0  0  0  0  0
   10.1928    3.9750    0.0000 H   0  0  0  0  0  0  0  0  0  0  0  0
    9.3957    3.9750    0.0000 H   0  0  0  0  0  0  0  0  0  0  0  0
   10.8723    1.4174    0.0000 H   0  0  0  0  0  0  0  0  0  0  0  0
   11.2708    2.1077    0.0000 H   0  0  0  0  0  0  0  0  0  0  0  0
    8.7162    3.5826    0.0000 H   0  0  0  0  0  0  0  0  0  0  0  0
    8.3176    2.8923    0.0000 H   0  0  0  0  0  0  0  0  0  0  0  0
    9.3957    1.0250    0.0000 H   0  0  0  0  0  0  0  0  0  0  0  0
   10.1928    1.0250    0.0000 H   0  0  0  0  0  0  0  0  0  0  0  0
    7.5252    1.8100    0.0000 H   0  0  0  0  0  0  0  0  0  0  0  0
    4.5981   -0.1200    0.0000 H   0  0  0  0  0  0  0  0  0  0  0  0
    5.2087    1.3923    0.0000 H   0  0  0  0  0  0  0  0  0  0  0  0
    4.8101    2.0826    0.0000 H   0  0  0  0  0  0  0  0  0  0  0  0
    3.3335   -0.4749    0.0000 H   0  0  0  0  0  0  0  0  0  0  0  0
    4.1306   -0.4749    0.0000 H   0  0  0  0  0  0  0  0  0  0  0  0
    4.1306    2.4750    0.0000 H   0  0  0  0  0  0  0  0  0  0  0  0
    3.3335    2.4750    0.0000 H   0  0  0  0  0  0  0  0  0  0  0  0
    2.2554    0.6077    0.0000 H   0  0  0  0  0  0  0  0  0  0  0  0
    2.6540   -0.0826    0.0000 H   0  0  0  0  0  0  0  0  0  0  0  0
   12.1463    4.5000    0.0000 H   0  0  0  0  0  0  0  0  0  0  0  0
   11.5263    5.1200    0.0000 H   0  0  0  0  0  0  0  0  0  0  0  0
   10.9063    4.5000    0.0000 H   0  0  0  0  0  0  0  0  0  0  0  0
   12.0823    2.4631    0.0000 H   0  0  0  0  0  0  0  0  0  0  0  0
   12.9292    2.6900    0.0000 H   0  0  0  0  0  0  0  0  0  0  0  0
   12.7023    3.5369    0.0000 H   0  0  0  0  0  0  0  0  0  0  0  0
    5.4641   -0.6200    0.0000 H   0  0  0  0  0  0  0  0  0  0  0  0
    2.3100    2.5369    0.0000 H   0  0  0  0  0  0  0  0  0  0  0  0
    1.4631    2.3100    0.0000 H   0  0  0  0  0  0  0  0  0  0  0  0
    1.6900    1.4631    0.0000 H   0  0  0  0  0  0  0  0  0  0  0  0
    6.6592   -1.3100    0.0000 H   0  0  0  0  0  0  0  0  0  0  0  0
   10.3312   -1.1900    0.0000 H   0  0  0  0  0  0  0  0  0  0  0  0
    8.3913   -2.6900    0.0000 H   0  0  0  0  0  0  0  0  0  0  0  0
   11.1972   -2.6900    0.0000 H   0  0  0  0  0  0  0  0  0  0  0  0
    9.7942   -5.1200    0.0000 H   0  0  0  0  0  0  0  0  0  0  0  0
  1 33  1  0  0  0  0
  2 34  1  0  0  0  0
  3 26  2  0  0  0  0
  4 11  1  0  0  0  0
  4 22  1  0  0  0  0
  4 23  1  0  0  0  0
  5 12  1  0  0  0  0
  5 24  1  0  0  0  0
  5 46  1  0  0  0  0
  6 20  1  0  0  0  0
  6 21  1  0  0  0  0
  6 27  1  0  0  0  0
  7 17  1  0  0  0  0
  7 26  1  0  0  0  0
  7 62  1  0  0  0  0
  8 24  2  0  0  0  0
  8 29  1  0  0  0  0
  9 28  1  0  0  0  0
  9 29  2  0  0  0  0
 10 29  1  0  0  0  0
 10 30  1  0  0  0  0
 10 67  1  0  0  0  0
 11 13  1  0  0  0  0
 11 14  1  0  0  0  0
 11 36  1  0  0  0  0
 12 15  1  0  0  0  0
 12 16  1  0  0  0  0
 12 37  1  0  0  0  0
 13 15  1  0  0  0  0
 13 38  1  0  0  0  0
 13 39  1  0  0  0  0
 14 16  1  0  0  0  0
 14 40  1  0  0  0  0
 14 41  1  0  0  0  0
 15 42  1  0  0  0  0
 15 43  1  0  0  0  0
 16 44  1  0  0  0  0
 16 45  1  0  0  0  0
 17 18  1  0  0  0  0
 17 19  1  0  0  0  0
 17 47  1  0  0  0  0
 18 20  1  0  0  0  0
 18 48  1  0  0  0  0
 18 49  1  0  0  0  0
 19 21  1  0  0  0  0
 19 50  1  0  0  0  0
 19 51  1  0  0  0  0
 20 52  1  0  0  0  0
 20 53  1  0  0  0  0
 21 54  1  0  0  0  0
 21 55  1  0  0  0  0
 22 56  1  0  0  0  0
 22 57  1  0  0  0  0
 22 58  1  0  0  0  0
 23 59  1  0  0  0  0
 23 60  1  0  0  0  0
 23 61  1  0  0  0  0
 24 25  1  0  0  0  0
 25 26  1  0  0  0  0
 25 28  2  0  0  0  0
 27 63  1  0  0  0  0
 27 64  1  0  0  0  0
 27 65  1  0  0  0  0
 28 66  1  0  0  0  0
 30 31  2  0  0  0  0
 30 32  1  0  0  0  0
 31 34  1  0  0  0  0
 31 68  1  0  0  0  0
 32 33  2  0  0  0  0
 32 69  1  0  0  0  0
 33 35  1  0  0  0  0
 34 35  2  0  0  0  0
 35 70  1  0  0  0  0
M  END
> <PUBCHEM_COMPOUND_CID>
71553085

> <PUBCHEM_COMPOUND_CANONICALIZED>
1

> <PUBCHEM_CACTVS_COMPLEXITY>
660

> <PUBCHEM_CACTVS_HBOND_ACCEPTOR>
7

> <PUBCHEM_CACTVS_HBOND_DONOR>
3

> <PUBCHEM_CACTVS_ROTATABLE_BOND>
7

> <PUBCHEM_CACTVS_SUBSKEYS>
AAADcfB7oAAGAAAAAAAAAAAAAAAAAAAAAAA8eIEAAAAAAAABwAAAHgIQAAAADCrBmiQ/8JfIEACoAjd3dACCgCk1B6AB2KEoZtiIKKrB29GEJIholgLIyOcQAAAAAAAAAAKAAAAAAQAABQAAAAAAAAAAAA==

> <PUBCHEM_IUPAC_OPENEYE_NAME>
2-(3,5-dichloroanilino)-4-[[4-(dimethylamino)cyclohexyl]amino]-N-(1-methyl-4-piperidyl)pyrimidine-5-carboxamide

> <PUBCHEM_IUPAC_CAS_NAME>
2-(3,5-dichloroanilino)-4-[[4-(dimethylamino)cyclohexyl]amino]-N-(1-methyl-4-piperidinyl)-5-pyrimidinecarboxamide

> <PUBCHEM_IUPAC_NAME_MARKUP>
2-(3,5-dichloroanilino)-4-[[4-(dimethylamino)cyclohexyl]amino]-<I>N</I>-(1-methylpiperidin-4-yl)pyrimidine-5-carboxamide

> <PUBCHEM_IUPAC_NAME>
2-(3,5-dichloroanilino)-4-[[4-(dimethylamino)cyclohexyl]amino]-N-(1-methylpiperidin-4-yl)pyrimidine-5-carboxamide

> <PUBCHEM_IUPAC_SYSTEMATIC_NAME>
2-[[3,5-bis(chloranyl)phenyl]amino]-4-[[4-(dimethylamino)cyclohexyl]amino]-N-(1-methylpiperidin-4-yl)pyrimidine-5-carboxamide

> <PUBCHEM_IUPAC_TRADITIONAL_NAME>
2-(3,5-dichloroanilino)-4-[[4-(dimethylamino)cyclohexyl]amino]-N-(1-methyl-4-piperidyl)pyrimidine-5-carboxamide

> <PUBCHEM_IUPAC_INCHI>
InChI=1S/C25H35Cl2N7O/c1-33(2)21-6-4-18(5-7-21)29-23-22(24(35)30-19-8-10-34(3)11-9-19)15-28-25(32-23)31-20-13-16(26)12-17(27)14-20/h12-15,18-19,21H,4-11H2,1-3H3,(H,30,35)(H2,28,29,31,32)

> <PUBCHEM_IUPAC_INCHIKEY>
SQKBBDOFPPNVCL-UHFFFAOYSA-N

> <PUBCHEM_XLOGP3_AA>
5.4

> <PUBCHEM_EXACT_MASS>
519.2280142

> <PUBCHEM_MOLECULAR_FORMULA>
C25H35Cl2N7O

> <PUBCHEM_MOLECULAR_WEIGHT>
520.5

> <PUBCHEM_SMILES>
CN1CCC(CC1)NC(=O)C2=CN=C(N=C2NC3CCC(CC3)N(C)C)NC4=CC(=CC(=C4)Cl)Cl

> <PUBCHEM_OPENEYE_CAN_SMILES>
CN1CCC(CC1)NC(=O)C2=CN=C(N=C2NC3CCC(CC3)N(C)C)NC4=CC(=CC(=C4)Cl)Cl

> <PUBCHEM_OPENEYE_ISO_SMILES>
CN1CCC(CC1)NC(=O)C2=CN=C(N=C2NC3CCC(CC3)N(C)C)NC4=CC(=CC(=C4)Cl)Cl

> <PUBCHEM_CACTVS_TPSA>
85.4

> <PUBCHEM_MONOISOTOPIC_WEIGHT>
519.2280142

> <PUBCHEM_TOTAL_CHARGE>
0

> <PUBCHEM_HEAVY_ATOM_COUNT>
35

> <PUBCHEM_ATOM_DEF_STEREO_COUNT>
0

> <PUBCHEM_ATOM_UDEF_STEREO_COUNT>
0

> <PUBCHEM_BOND_DEF_STEREO_COUNT>
0

> <PUBCHEM_BOND_UDEF_STEREO_COUNT>
0

> <PUBCHEM_ISOTOPIC_ATOM_COUNT>
0

> <PUBCHEM_COMPONENT_COUNT>
1

> <PUBCHEM_CACTVS_TAUTO_COUNT>
-1

> <PUBCHEM_COORDINATE_TYPE>
1
5
255

> <PUBCHEM_BONDANNOTATIONS>
24  25  8
25  28  8
30  31  8
30  32  8
31  34  8
32  33  8
33  35  8
34  35  8
8  24  8
8  29  8
9  28  8
9  29  8

$$$$
