10409523
  -OEChem-03202504462D

 43 46  0     0  0  0  0  0  0999 V2000
   10.7389    3.7526    0.0000 F   0  0  0  0  0  0  0  0  0  0  0  0
   10.0991    5.0138    0.0000 F   0  0  0  0  0  0  0  0  0  0  0  0
    8.8379    4.3739    0.0000 F   0  0  0  0  0  0  0  0  0  0  0  0
    4.6783   -4.8185    0.0000 O   0  0  0  0  0  0  0  0  0  0  0  0
    7.5673    0.0550    0.0000 O   0  0  0  0  0  0  0  0  0  0  0  0
    5.9209    0.5930    0.0000 N   0  0  0  0  0  0  0  0  0  0  0  0
    5.2619   -4.0138    0.0000 N   0  0  0  0  0  0  0  0  0  0  0  0
    7.2101    1.7498    0.0000 N   0  0  0  0  0  0  0  0  0  0  0  0
    2.8660   -5.0138    0.0000 N   0  0  0  0  0  0  0  0  0  0  0  0
    2.0000   -3.5138    0.0000 N   0  0  0  0  0  0  0  0  0  0  0  0
    2.8660   -2.0138    0.0000 N   0  0  0  0  0  0  0  0  0  0  0  0
    4.9889   -2.2585    0.0000 C   0  0  0  0  0  0  0  0  0  0  0  0
    4.6783   -3.2090    0.0000 C   0  0  0  0  0  0  0  0  0  0  0  0
    3.7320   -3.5138    0.0000 C   0  0  0  0  0  0  0  0  0  0  0  0
    5.6103   -0.3575    0.0000 C   0  0  0  0  0  0  0  0  0  0  0  0
    4.3211   -1.5142    0.0000 C   0  0  0  0  0  0  0  0  0  0  0  0
    5.9674   -2.0523    0.0000 C   0  0  0  0  0  0  0  0  0  0  0  0
    4.6318   -0.5637    0.0000 C   0  0  0  0  0  0  0  0  0  0  0  0
    6.2781   -1.1018    0.0000 C   0  0  0  0  0  0  0  0  0  0  0  0
    3.7320   -4.5138    0.0000 C   0  0  0  0  0  0  0  0  0  0  0  0
    2.8660   -3.0138    0.0000 C   0  0  0  0  0  0  0  0  0  0  0  0
    8.1886    1.9560    0.0000 C   0  0  0  0  0  0  0  0  0  0  0  0
    9.4778    3.1127    0.0000 C   0  0  0  0  0  0  0  0  0  0  0  0
    8.4993    2.9065    0.0000 C   0  0  0  0  0  0  0  0  0  0  0  0
    6.8994    0.7993    0.0000 C   0  0  0  0  0  0  0  0  0  0  0  0
    8.8564    1.2117    0.0000 C   0  0  0  0  0  0  0  0  0  0  0  0
   10.1456    2.3684    0.0000 C   0  0  0  0  0  0  0  0  0  0  0  0
    9.8349    1.4179    0.0000 C   0  0  0  0  0  0  0  0  0  0  0  0
    9.7884    4.0633    0.0000 C   0  0  0  0  0  0  0  0  0  0  0  0
    2.0000   -4.5138    0.0000 C   0  0  0  0  0  0  0  0  0  0  0  0
    3.7144   -1.6421    0.0000 H   0  0  0  0  0  0  0  0  0  0  0  0
    6.3815   -2.5138    0.0000 H   0  0  0  0  0  0  0  0  0  0  0  0
    4.2177   -0.1022    0.0000 H   0  0  0  0  0  0  0  0  0  0  0  0
    6.8848   -0.9739    0.0000 H   0  0  0  0  0  0  0  0  0  0  0  0
    5.5069    1.0545    0.0000 H   0  0  0  0  0  0  0  0  0  0  0  0
    8.0852    3.3680    0.0000 H   0  0  0  0  0  0  0  0  0  0  0  0
    6.7960    2.2112    0.0000 H   0  0  0  0  0  0  0  0  0  0  0  0
    8.6638    0.6224    0.0000 H   0  0  0  0  0  0  0  0  0  0  0  0
   10.7523    2.4963    0.0000 H   0  0  0  0  0  0  0  0  0  0  0  0
   10.2490    0.9564    0.0000 H   0  0  0  0  0  0  0  0  0  0  0  0
    1.4631   -4.8238    0.0000 H   0  0  0  0  0  0  0  0  0  0  0  0
    2.3291   -1.7038    0.0000 H   0  0  0  0  0  0  0  0  0  0  0  0
    3.4030   -1.7038    0.0000 H   0  0  0  0  0  0  0  0  0  0  0  0
  1 29  1  0  0  0  0
  2 29  1  0  0  0  0
  3 29  1  0  0  0  0
  4  7  1  0  0  0  0
  4 20  1  0  0  0  0
  5 25  2  0  0  0  0
  6 15  1  0  0  0  0
  6 25  1  0  0  0  0
  6 35  1  0  0  0  0
  7 13  2  0  0  0  0
  8 22  1  0  0  0  0
  8 25  1  0  0  0  0
  8 37  1  0  0  0  0
  9 20  2  0  0  0  0
  9 30  1  0  0  0  0
 10 21  1  0  0  0  0
 10 30  2  0  0  0  0
 11 21  1  0  0  0  0
 11 42  1  0  0  0  0
 11 43  1  0  0  0  0
 12 13  1  0  0  0  0
 12 16  2  0  0  0  0
 12 17  1  0  0  0  0
 13 14  1  0  0  0  0
 14 20  1  0  0  0  0
 14 21  2  0  0  0  0
 15 18  2  0  0  0  0
 15 19  1  0  0  0  0
 16 18  1  0  0  0  0
 16 31  1  0  0  0  0
 17 19  2  0  0  0  0
 17 32  1  0  0  0  0
 18 33  1  0  0  0  0
 19 34  1  0  0  0  0
 22 24  1  0  0  0  0
 22 26  2  0  0  0  0
 23 24  2  0  0  0  0
 23 27  1  0  0  0  0
 23 29  1  0  0  0  0
 24 36  1  0  0  0  0
 26 28  1  0  0  0  0
 26 38  1  0  0  0  0
 27 28  2  0  0  0  0
 27 39  1  0  0  0  0
 28 40  1  0  0  0  0
 30 41  1  0  0  0  0
M  END
> <PUBCHEM_COMPOUND_CID>
10409523

> <PUBCHEM_COMPOUND_CANONICALIZED>
1

> <PUBCHEM_CACTVS_COMPLEXITY>
601

> <PUBCHEM_CACTVS_HBOND_ACCEPTOR>
9

> <PUBCHEM_CACTVS_HBOND_DONOR>
3

> <PUBCHEM_CACTVS_ROTATABLE_BOND>
3

> <PUBCHEM_CACTVS_SUBSKEYS>
AAADccB7sYAAAAAAAAAAAAAAAAAAAWAAAAA8YIAAAAAAAFgB/AAAHwAUAAAADAiBnhQ19NbYEACpAydzdgCCgCk1IqAp2CEsbNqILrrA2dOENYhulxpIyWeYyOCOCAAAQAAAAAAQAACAAAAAAAAAAAAAAA==

> <PUBCHEM_IUPAC_OPENEYE_NAME>
1-[4-(4-aminoisoxazolo[5,4-d]pyrimidin-3-yl)phenyl]-3-[3-(trifluoromethyl)phenyl]urea

> <PUBCHEM_IUPAC_CAS_NAME>
1-[4-(4-amino-3-isoxazolo[5,4-d]pyrimidinyl)phenyl]-3-[3-(trifluoromethyl)phenyl]urea

> <PUBCHEM_IUPAC_NAME_MARKUP>
1-[4-(4-amino-[1,2]oxazolo[5,4-d]pyrimidin-3-yl)phenyl]-3-[3-(trifluoromethyl)phenyl]urea

> <PUBCHEM_IUPAC_NAME>
1-[4-(4-amino-[1,2]oxazolo[5,4-d]pyrimidin-3-yl)phenyl]-3-[3-(trifluoromethyl)phenyl]urea

> <PUBCHEM_IUPAC_SYSTEMATIC_NAME>
1-[4-(4-azanyl-[1,2]oxazolo[5,4-d]pyrimidin-3-yl)phenyl]-3-[3-(trifluoromethyl)phenyl]urea

> <PUBCHEM_IUPAC_TRADITIONAL_NAME>
1-[4-(4-aminoisoxazolo[5,4-d]pyrimidin-3-yl)phenyl]-3-[3-(trifluoromethyl)phenyl]urea

> <PUBCHEM_IUPAC_INCHI>
InChI=1S/C19H13F3N6O2/c20-19(21,22)11-2-1-3-13(8-11)27-18(29)26-12-6-4-10(5-7-12)15-14-16(23)24-9-25-17(14)30-28-15/h1-9H,(H2,23,24,25)(H2,26,27,29)

> <PUBCHEM_IUPAC_INCHIKEY>
ZXLFIHLBHMLHFJ-UHFFFAOYSA-N

> <PUBCHEM_XLOGP3_AA>
3.1

> <PUBCHEM_EXACT_MASS>
414.10520816

> <PUBCHEM_MOLECULAR_FORMULA>
C19H13F3N6O2

> <PUBCHEM_MOLECULAR_WEIGHT>
414.3

> <PUBCHEM_SMILES>
C1=CC(=CC(=C1)NC(=O)NC2=CC=C(C=C2)C3=NOC4=NC=NC(=C34)N)C(F)(F)F

> <PUBCHEM_OPENEYE_CAN_SMILES>
C1=CC(=CC(=C1)NC(=O)NC2=CC=C(C=C2)C3=NOC4=NC=NC(=C34)N)C(F)(F)F

> <PUBCHEM_OPENEYE_ISO_SMILES>
C1=CC(=CC(=C1)NC(=O)NC2=CC=C(C=C2)C3=NOC4=NC=NC(=C34)N)C(F)(F)F

> <PUBCHEM_CACTVS_TPSA>
119

> <PUBCHEM_MONOISOTOPIC_WEIGHT>
414.10520816

> <PUBCHEM_TOTAL_CHARGE>
0

> <PUBCHEM_HEAVY_ATOM_COUNT>
30

> <PUBCHEM_ATOM_DEF_STEREO_COUNT>
0

> <PUBCHEM_ATOM_UDEF_STEREO_COUNT>
0

> <PUBCHEM_BOND_DEF_STEREO_COUNT>
0

> <PUBCHEM_BOND_UDEF_STEREO_COUNT>
0

> <PUBCHEM_ISOTOPIC_ATOM_COUNT>
0

> <PUBCHEM_COMPONENT_COUNT>
1

> <PUBCHEM_CACTVS_TAUTO_COUNT>
-1

> <PUBCHEM_COORDINATE_TYPE>
1
5
255

> <PUBCHEM_BONDANNOTATIONS>
10  21  8
10  30  8
12  16  8
12  17  8
13  14  8
14  20  8
14  21  8
15  18  8
15  19  8
16  18  8
17  19  8
22  24  8
22  26  8
23  24  8
23  27  8
26  28  8
27  28  8
4  20  8
4  7  8
7  13  8
9  20  8
9  30  8

$$$$
