49830406
  -OEChem-03202502142D

 79 85  0     0  0  0  0  0  0999 V2000
    8.2619   -7.0952    0.0000 F   0  0  0  0  0  0  0  0  0  0  0  0
    7.7619   -6.2292    0.0000 O   0  0  0  0  0  0  0  0  0  0  0  0
    5.8279    6.2664    0.0000 N   0  0  0  0  0  0  0  0  0  0  0  0
    5.2066    4.3654    0.0000 N   0  0  0  0  0  0  0  0  0  0  0  0
    3.9639    0.5633    0.0000 N   0  0  0  0  0  0  0  0  0  0  0  0
    3.7320   -3.1311    0.0000 N   0  0  0  0  0  0  0  0  0  0  0  0
    4.6783   -4.4358    0.0000 N   0  0  0  0  0  0  0  0  0  0  0  0
    4.3211   -1.1315    0.0000 N   0  0  0  0  0  0  0  0  0  0  0  0
    5.6103    0.0252    0.0000 N   0  0  0  0  0  0  0  0  0  0  0  0
    9.2619   -5.3632    0.0000 N   0  0  0  0  0  0  0  0  0  0  0  0
    4.8494    6.0602    0.0000 C   0  0  0  0  0  0  0  0  0  0  0  0
    6.4957    5.5221    0.0000 C   0  0  0  0  0  0  0  0  0  0  0  0
    4.5387    5.1097    0.0000 C   0  0  0  0  0  0  0  0  0  0  0  0
    6.1851    4.5716    0.0000 C   0  0  0  0  0  0  0  0  0  0  0  0
    6.1385    7.2169    0.0000 C   0  0  0  0  0  0  0  0  0  0  0  0
    4.8959    3.4148    0.0000 C   0  0  0  0  0  0  0  0  0  0  0  0
    5.4707    7.9612    0.0000 C   0  0  0  0  0  0  0  0  0  0  0  0
    5.5637    2.6705    0.0000 C   0  0  0  0  0  0  0  0  0  0  0  0
    3.9174    3.2086    0.0000 C   0  0  0  0  0  0  0  0  0  0  0  0
    5.2531    1.7200    0.0000 C   0  0  0  0  0  0  0  0  0  0  0  0
    3.6067    2.2581    0.0000 C   0  0  0  0  0  0  0  0  0  0  0  0
    4.2746    1.5138    0.0000 C   0  0  0  0  0  0  0  0  0  0  0  0
    4.6783   -2.8264    0.0000 C   0  0  0  0  0  0  0  0  0  0  0  0
    5.2619   -3.6311    0.0000 C   0  0  0  0  0  0  0  0  0  0  0  0
    4.6318   -0.1810    0.0000 C   0  0  0  0  0  0  0  0  0  0  0  0
    4.9889   -1.8758    0.0000 C   0  0  0  0  0  0  0  0  0  0  0  0
    3.7320   -4.1311    0.0000 C   0  0  0  0  0  0  0  0  0  0  0  0
    6.2619   -3.6311    0.0000 C   0  0  0  0  0  0  0  0  0  0  0  0
    2.8660   -2.6311    0.0000 C   0  0  0  0  0  0  0  0  0  0  0  0
    2.8660   -4.6311    0.0000 C   0  0  0  0  0  0  0  0  0  0  0  0
    5.9674   -1.6696    0.0000 C   0  0  0  0  0  0  0  0  0  0  0  0
    6.7619   -4.4971    0.0000 C   0  0  0  0  0  0  0  0  0  0  0  0
    6.7619   -2.7651    0.0000 C   0  0  0  0  0  0  0  0  0  0  0  0
    2.0000   -3.1311    0.0000 C   0  0  0  0  0  0  0  0  0  0  0  0
    2.0000   -4.1311    0.0000 C   0  0  0  0  0  0  0  0  0  0  0  0
    7.7619   -4.4971    0.0000 C   0  0  0  0  0  0  0  0  0  0  0  0
    6.2781   -0.7191    0.0000 C   0  0  0  0  0  0  0  0  0  0  0  0
    7.7619   -2.7651    0.0000 C   0  0  0  0  0  0  0  0  0  0  0  0
    8.2619   -3.6311    0.0000 C   0  0  0  0  0  0  0  0  0  0  0  0
    8.2619   -5.3632    0.0000 C   0  0  0  0  0  0  0  0  0  0  0  0
    9.7619   -6.2292    0.0000 C   0  0  0  0  0  0  0  0  0  0  0  0
    9.2619   -7.0952    0.0000 C   0  0  0  0  0  0  0  0  0  0  0  0
   10.7619   -6.2292    0.0000 C   0  0  0  0  0  0  0  0  0  0  0  0
    9.7619   -7.9612    0.0000 C   0  0  0  0  0  0  0  0  0  0  0  0
   11.2619   -7.0952    0.0000 C   0  0  0  0  0  0  0  0  0  0  0  0
   10.7619   -7.9612    0.0000 C   0  0  0  0  0  0  0  0  0  0  0  0
    4.8288    6.6798    0.0000 H   0  0  0  0  0  0  0  0  0  0  0  0
    4.2356    6.1475    0.0000 H   0  0  0  0  0  0  0  0  0  0  0  0
    7.0426    5.2301    0.0000 H   0  0  0  0  0  0  0  0  0  0  0  0
    6.8783    6.0100    0.0000 H   0  0  0  0  0  0  0  0  0  0  0  0
    3.9918    5.4017    0.0000 H   0  0  0  0  0  0  0  0  0  0  0  0
    4.1562    4.6218    0.0000 H   0  0  0  0  0  0  0  0  0  0  0  0
    6.2056    3.9519    0.0000 H   0  0  0  0  0  0  0  0  0  0  0  0
    6.7989    4.4842    0.0000 H   0  0  0  0  0  0  0  0  0  0  0  0
    6.6855    6.9249    0.0000 H   0  0  0  0  0  0  0  0  0  0  0  0
    6.5211    7.7048    0.0000 H   0  0  0  0  0  0  0  0  0  0  0  0
    5.9322    8.3753    0.0000 H   0  0  0  0  0  0  0  0  0  0  0  0
    5.0566    8.4227    0.0000 H   0  0  0  0  0  0  0  0  0  0  0  0
    5.0092    7.5472    0.0000 H   0  0  0  0  0  0  0  0  0  0  0  0
    6.1704    2.7984    0.0000 H   0  0  0  0  0  0  0  0  0  0  0  0
    3.5033    3.6701    0.0000 H   0  0  0  0  0  0  0  0  0  0  0  0
    5.6671    1.2586    0.0000 H   0  0  0  0  0  0  0  0  0  0  0  0
    3.0000    2.1303    0.0000 H   0  0  0  0  0  0  0  0  0  0  0  0
    3.3572    0.4354    0.0000 H   0  0  0  0  0  0  0  0  0  0  0  0
    2.8660   -2.0111    0.0000 H   0  0  0  0  0  0  0  0  0  0  0  0
    2.8660   -5.2511    0.0000 H   0  0  0  0  0  0  0  0  0  0  0  0
    6.3815   -2.1311    0.0000 H   0  0  0  0  0  0  0  0  0  0  0  0
    6.4519   -5.0341    0.0000 H   0  0  0  0  0  0  0  0  0  0  0  0
    6.4519   -2.2281    0.0000 H   0  0  0  0  0  0  0  0  0  0  0  0
    1.4631   -2.8211    0.0000 H   0  0  0  0  0  0  0  0  0  0  0  0
    1.4631   -4.4411    0.0000 H   0  0  0  0  0  0  0  0  0  0  0  0
    6.8848   -0.5912    0.0000 H   0  0  0  0  0  0  0  0  0  0  0  0
    8.0719   -2.2281    0.0000 H   0  0  0  0  0  0  0  0  0  0  0  0
    8.8819   -3.6311    0.0000 H   0  0  0  0  0  0  0  0  0  0  0  0
    9.5719   -4.8262    0.0000 H   0  0  0  0  0  0  0  0  0  0  0  0
   11.0719   -5.6922    0.0000 H   0  0  0  0  0  0  0  0  0  0  0  0
    9.4519   -8.4982    0.0000 H   0  0  0  0  0  0  0  0  0  0  0  0
   11.8819   -7.0952    0.0000 H   0  0  0  0  0  0  0  0  0  0  0  0
   11.0719   -8.4982    0.0000 H   0  0  0  0  0  0  0  0  0  0  0  0
  1 42  1  0  0  0  0
  2 40  2  0  0  0  0
  3 11  1  0  0  0  0
  3 12  1  0  0  0  0
  3 15  1  0  0  0  0
  4 13  1  0  0  0  0
  4 14  1  0  0  0  0
  4 16  1  0  0  0  0
  5 22  1  0  0  0  0
  5 25  1  0  0  0  0
  5 64  1  0  0  0  0
  6 23  1  0  0  0  0
  6 27  1  0  0  0  0
  6 29  1  0  0  0  0
  7 24  1  0  0  0  0
  7 27  2  0  0  0  0
  8 25  1  0  0  0  0
  8 26  2  0  0  0  0
  9 25  2  0  0  0  0
  9 37  1  0  0  0  0
 10 40  1  0  0  0  0
 10 41  1  0  0  0  0
 10 75  1  0  0  0  0
 11 13  1  0  0  0  0
 11 47  1  0  0  0  0
 11 48  1  0  0  0  0
 12 14  1  0  0  0  0
 12 49  1  0  0  0  0
 12 50  1  0  0  0  0
 13 51  1  0  0  0  0
 13 52  1  0  0  0  0
 14 53  1  0  0  0  0
 14 54  1  0  0  0  0
 15 17  1  0  0  0  0
 15 55  1  0  0  0  0
 15 56  1  0  0  0  0
 16 18  2  0  0  0  0
 16 19  1  0  0  0  0
 17 57  1  0  0  0  0
 17 58  1  0  0  0  0
 17 59  1  0  0  0  0
 18 20  1  0  0  0  0
 18 60  1  0  0  0  0
 19 21  2  0  0  0  0
 19 61  1  0  0  0  0
 20 22  2  0  0  0  0
 20 62  1  0  0  0  0
 21 22  1  0  0  0  0
 21 63  1  0  0  0  0
 23 24  2  0  0  0  0
 23 26  1  0  0  0  0
 24 28  1  0  0  0  0
 26 31  1  0  0  0  0
 27 30  1  0  0  0  0
 28 32  2  0  0  0  0
 28 33  1  0  0  0  0
 29 34  2  0  0  0  0
 29 65  1  0  0  0  0
 30 35  2  0  0  0  0
 30 66  1  0  0  0  0
 31 37  2  0  0  0  0
 31 67  1  0  0  0  0
 32 36  1  0  0  0  0
 32 68  1  0  0  0  0
 33 38  2  0  0  0  0
 33 69  1  0  0  0  0
 34 35  1  0  0  0  0
 34 70  1  0  0  0  0
 35 71  1  0  0  0  0
 36 39  2  0  0  0  0
 36 40  1  0  0  0  0
 37 72  1  0  0  0  0
 38 39  1  0  0  0  0
 38 73  1  0  0  0  0
 39 74  1  0  0  0  0
 41 42  1  0  0  0  0
 41 43  2  0  0  0  0
 42 44  2  0  0  0  0
 43 45  1  0  0  0  0
 43 76  1  0  0  0  0
 44 46  1  0  0  0  0
 44 77  1  0  0  0  0
 45 46  2  0  0  0  0
 45 78  1  0  0  0  0
 46 79  1  0  0  0  0
M  END
> <PUBCHEM_COMPOUND_CID>
49830406

> <PUBCHEM_COMPOUND_CANONICALIZED>
1

> <PUBCHEM_CACTVS_COMPLEXITY>
974

> <PUBCHEM_CACTVS_HBOND_ACCEPTOR>
8

> <PUBCHEM_CACTVS_HBOND_DONOR>
2

> <PUBCHEM_CACTVS_ROTATABLE_BOND>
8

> <PUBCHEM_CACTVS_SUBSKEYS>
AAADcfB/4QAAAAAAAAAAAAAAAAAAAWAAAAA8ePECAAAAAFgB/AAAHwAQAAAADAjBnww/8J/MGACoAzd3dACCgC01EqAJ2CE4dNiIaPLA3dGUJQholALIyacYicCeAACCAAAAAAAAAQQAAAAAAAAAAAAAAA==

> <PUBCHEM_IUPAC_OPENEYE_NAME>
3-[3-[2-[4-(4-ethylpiperazin-1-yl)anilino]pyrimidin-4-yl]imidazo[1,2-a]pyridin-2-yl]-N-(2-fluorophenyl)benzamide

> <PUBCHEM_IUPAC_CAS_NAME>
3-[3-[2-[4-(4-ethyl-1-piperazinyl)anilino]-4-pyrimidinyl]-2-imidazo[1,2-a]pyridinyl]-N-(2-fluorophenyl)benzamide

> <PUBCHEM_IUPAC_NAME_MARKUP>
3-[3-[2-[4-(4-ethylpiperazin-1-yl)anilino]pyrimidin-4-yl]imidazo[1,2-a]pyridin-2-yl]-<I>N</I>-(2-fluorophenyl)benzamide

> <PUBCHEM_IUPAC_NAME>
3-[3-[2-[4-(4-ethylpiperazin-1-yl)anilino]pyrimidin-4-yl]imidazo[1,2-a]pyridin-2-yl]-N-(2-fluorophenyl)benzamide

> <PUBCHEM_IUPAC_SYSTEMATIC_NAME>
3-[3-[2-[[4-(4-ethylpiperazin-1-yl)phenyl]amino]pyrimidin-4-yl]imidazo[1,2-a]pyridin-2-yl]-N-(2-fluorophenyl)benzamide

> <PUBCHEM_IUPAC_TRADITIONAL_NAME>
3-[3-[2-[4-(4-ethylpiperazino)anilino]pyrimidin-4-yl]imidazo[1,2-a]pyridin-2-yl]-N-(2-fluorophenyl)benzamide

> <PUBCHEM_IUPAC_INCHI>
InChI=1S/C36H33FN8O/c1-2-43-20-22-44(23-21-43)28-15-13-27(14-16-28)39-36-38-18-17-31(41-36)34-33(42-32-12-5-6-19-45(32)34)25-8-7-9-26(24-25)35(46)40-30-11-4-3-10-29(30)37/h3-19,24H,2,20-23H2,1H3,(H,40,46)(H,38,39,41)

> <PUBCHEM_IUPAC_INCHIKEY>
CPVBDWFSIXDJER-UHFFFAOYSA-N

> <PUBCHEM_XLOGP3_AA>
6.5

> <PUBCHEM_EXACT_MASS>
612.27613587

> <PUBCHEM_MOLECULAR_FORMULA>
C36H33FN8O

> <PUBCHEM_MOLECULAR_WEIGHT>
612.7

> <PUBCHEM_SMILES>
CCN1CCN(CC1)C2=CC=C(C=C2)NC3=NC=CC(=N3)C4=C(N=C5N4C=CC=C5)C6=CC(=CC=C6)C(=O)NC7=CC=CC=C7F

> <PUBCHEM_OPENEYE_CAN_SMILES>
CCN1CCN(CC1)C2=CC=C(C=C2)NC3=NC=CC(=N3)C4=C(N=C5N4C=CC=C5)C6=CC(=CC=C6)C(=O)NC7=CC=CC=C7F

> <PUBCHEM_OPENEYE_ISO_SMILES>
CCN1CCN(CC1)C2=CC=C(C=C2)NC3=NC=CC(=N3)C4=C(N=C5N4C=CC=C5)C6=CC(=CC=C6)C(=O)NC7=CC=CC=C7F

> <PUBCHEM_CACTVS_TPSA>
90.7

> <PUBCHEM_MONOISOTOPIC_WEIGHT>
612.27613587

> <PUBCHEM_TOTAL_CHARGE>
0

> <PUBCHEM_HEAVY_ATOM_COUNT>
46

> <PUBCHEM_ATOM_DEF_STEREO_COUNT>
0

> <PUBCHEM_ATOM_UDEF_STEREO_COUNT>
0

> <PUBCHEM_BOND_DEF_STEREO_COUNT>
0

> <PUBCHEM_BOND_UDEF_STEREO_COUNT>
0

> <PUBCHEM_ISOTOPIC_ATOM_COUNT>
0

> <PUBCHEM_COMPONENT_COUNT>
1

> <PUBCHEM_CACTVS_TAUTO_COUNT>
-1

> <PUBCHEM_COORDINATE_TYPE>
1
5
255

> <PUBCHEM_BONDANNOTATIONS>
16  18  8
16  19  8
18  20  8
19  21  8
20  22  8
21  22  8
23  24  8
26  31  8
27  30  8
28  32  8
28  33  8
29  34  8
30  35  8
31  37  8
32  36  8
33  38  8
34  35  8
36  39  8
38  39  8
41  42  8
41  43  8
42  44  8
43  45  8
44  46  8
45  46  8
6  23  8
6  27  8
6  29  8
7  24  8
7  27  8
8  25  8
8  26  8
9  25  8
9  37  8

$$$$
