49830539
  -OEChem-03202501502D

 53 57  0     0  0  0  0  0  0999 V2000
    4.2690   -2.4720    0.0000 O   0  0  0  0  0  0  0  0  0  0  0  0
    8.1240   -3.2272    0.0000 O   0  0  0  0  0  0  0  0  0  0  0  0
    4.2272    3.6229    0.0000 O   0  0  0  0  0  0  0  0  0  0  0  0
    8.3969   -1.4720    0.0000 N   0  0  0  0  0  0  0  0  0  0  0  0
    6.0010    3.5280    0.0000 N   0  0  0  0  0  0  0  0  0  0  0  0
    5.0320    5.0168    0.0000 N   0  0  0  0  0  0  0  0  0  0  0  0
    2.5369   -5.4720    0.0000 N   0  0  0  0  0  0  0  0  0  0  0  0
    6.8671   -0.9720    0.0000 C   0  0  0  0  0  0  0  0  0  0  0  0
    6.0010   -0.4720    0.0000 C   0  0  0  0  0  0  0  0  0  0  0  0
    6.8671   -1.9720    0.0000 C   0  0  0  0  0  0  0  0  0  0  0  0
    7.8133   -0.6672    0.0000 C   0  0  0  0  0  0  0  0  0  0  0  0
    7.8133   -2.2767    0.0000 C   0  0  0  0  0  0  0  0  0  0  0  0
    6.0010    0.5280    0.0000 C   0  0  0  0  0  0  0  0  0  0  0  0
    5.1350   -0.9720    0.0000 C   0  0  0  0  0  0  0  0  0  0  0  0
    6.0010   -2.4720    0.0000 C   0  0  0  0  0  0  0  0  0  0  0  0
    5.1350   -1.9720    0.0000 C   0  0  0  0  0  0  0  0  0  0  0  0
    6.8671    1.0280    0.0000 C   0  0  0  0  0  0  0  0  0  0  0  0
    5.1350    1.0280    0.0000 C   0  0  0  0  0  0  0  0  0  0  0  0
    4.2690   -3.4720    0.0000 C   0  0  0  0  0  0  0  0  0  0  0  0
    6.0010    2.5280    0.0000 C   0  0  0  0  0  0  0  0  0  0  0  0
    6.8671    2.0280    0.0000 C   0  0  0  0  0  0  0  0  0  0  0  0
    5.1350    2.0280    0.0000 C   0  0  0  0  0  0  0  0  0  0  0  0
    3.4030   -3.9720    0.0000 C   0  0  0  0  0  0  0  0  0  0  0  0
    3.4030   -4.9720    0.0000 C   0  0  0  0  0  0  0  0  0  0  0  0
    5.1350    4.0280    0.0000 C   0  0  0  0  0  0  0  0  0  0  0  0
    3.5601    4.3599    0.0000 C   0  0  0  0  0  0  0  0  0  0  0  0
    4.0601    5.2260    0.0000 C   0  0  0  0  0  0  0  0  0  0  0  0
    2.5601    4.3599    0.0000 C   0  0  0  0  0  0  0  0  0  0  0  0
    3.5601    6.0920    0.0000 C   0  0  0  0  0  0  0  0  0  0  0  0
    2.0601    5.2260    0.0000 C   0  0  0  0  0  0  0  0  0  0  0  0
    2.5601    6.0920    0.0000 C   0  0  0  0  0  0  0  0  0  0  0  0
    8.3507   -0.3580    0.0000 H   0  0  0  0  0  0  0  0  0  0  0  0
    7.5622   -0.1003    0.0000 H   0  0  0  0  0  0  0  0  0  0  0  0
    9.0169   -1.4720    0.0000 H   0  0  0  0  0  0  0  0  0  0  0  0
    4.5981   -0.6620    0.0000 H   0  0  0  0  0  0  0  0  0  0  0  0
    6.0010   -3.0920    0.0000 H   0  0  0  0  0  0  0  0  0  0  0  0
    7.4040    0.7180    0.0000 H   0  0  0  0  0  0  0  0  0  0  0  0
    4.5981    0.7180    0.0000 H   0  0  0  0  0  0  0  0  0  0  0  0
    4.4810   -4.0546    0.0000 H   0  0  0  0  0  0  0  0  0  0  0  0
    4.8796   -3.3643    0.0000 H   0  0  0  0  0  0  0  0  0  0  0  0
    7.4040    2.3380    0.0000 H   0  0  0  0  0  0  0  0  0  0  0  0
    4.5981    2.3380    0.0000 H   0  0  0  0  0  0  0  0  0  0  0  0
    3.1909   -3.3894    0.0000 H   0  0  0  0  0  0  0  0  0  0  0  0
    2.7924   -4.0796    0.0000 H   0  0  0  0  0  0  0  0  0  0  0  0
    6.5380    3.8380    0.0000 H   0  0  0  0  0  0  0  0  0  0  0  0
    3.6150   -5.5546    0.0000 H   0  0  0  0  0  0  0  0  0  0  0  0
    4.0135   -4.8643    0.0000 H   0  0  0  0  0  0  0  0  0  0  0  0
    2.5369   -6.0920    0.0000 H   0  0  0  0  0  0  0  0  0  0  0  0
    2.0000   -5.1620    0.0000 H   0  0  0  0  0  0  0  0  0  0  0  0
    2.2501    3.8230    0.0000 H   0  0  0  0  0  0  0  0  0  0  0  0
    3.8701    6.6289    0.0000 H   0  0  0  0  0  0  0  0  0  0  0  0
    1.4401    5.2260    0.0000 H   0  0  0  0  0  0  0  0  0  0  0  0
    2.2501    6.6289    0.0000 H   0  0  0  0  0  0  0  0  0  0  0  0
  1 16  1  0  0  0  0
  1 19  1  0  0  0  0
  2 12  2  0  0  0  0
  3 25  1  0  0  0  0
  3 26  1  0  0  0  0
  4 11  1  0  0  0  0
  4 12  1  0  0  0  0
  4 34  1  0  0  0  0
  5 20  1  0  0  0  0
  5 25  1  0  0  0  0
  5 45  1  0  0  0  0
  6 25  2  0  0  0  0
  6 27  1  0  0  0  0
  7 24  1  0  0  0  0
  7 48  1  0  0  0  0
  7 49  1  0  0  0  0
  8  9  2  0  0  0  0
  8 10  1  0  0  0  0
  8 11  1  0  0  0  0
  9 13  1  0  0  0  0
  9 14  1  0  0  0  0
 10 12  1  0  0  0  0
 10 15  2  0  0  0  0
 11 32  1  0  0  0  0
 11 33  1  0  0  0  0
 13 17  2  0  0  0  0
 13 18  1  0  0  0  0
 14 16  2  0  0  0  0
 14 35  1  0  0  0  0
 15 16  1  0  0  0  0
 15 36  1  0  0  0  0
 17 21  1  0  0  0  0
 17 37  1  0  0  0  0
 18 22  2  0  0  0  0
 18 38  1  0  0  0  0
 19 23  1  0  0  0  0
 19 39  1  0  0  0  0
 19 40  1  0  0  0  0
 20 21  2  0  0  0  0
 20 22  1  0  0  0  0
 21 41  1  0  0  0  0
 22 42  1  0  0  0  0
 23 24  1  0  0  0  0
 23 43  1  0  0  0  0
 23 44  1  0  0  0  0
 24 46  1  0  0  0  0
 24 47  1  0  0  0  0
 26 27  1  0  0  0  0
 26 28  2  0  0  0  0
 27 29  2  0  0  0  0
 28 30  1  0  0  0  0
 28 50  1  0  0  0  0
 29 31  1  0  0  0  0
 29 51  1  0  0  0  0
 30 31  2  0  0  0  0
 30 52  1  0  0  0  0
 31 53  1  0  0  0  0
M  END
> <PUBCHEM_COMPOUND_CID>
49830539

> <PUBCHEM_COMPOUND_CANONICALIZED>
1

> <PUBCHEM_CACTVS_COMPLEXITY>
612

> <PUBCHEM_CACTVS_HBOND_ACCEPTOR>
6

> <PUBCHEM_CACTVS_HBOND_DONOR>
3

> <PUBCHEM_CACTVS_ROTATABLE_BOND>
7

> <PUBCHEM_CACTVS_SUBSKEYS>
AAADceB7sAAAAAAAAAAAAAAAAAAAAWLAAAAwYMAAAAAAAFgB9AAAHgAQAAAADAzhngYx1rLIFECoA6VydASCiCkvYiAJmKG/bNmOJrLEvbuPOSju1hPY6ae+2PKOqAADAAAQEABQAAYAACAgAAAAAAAAAA==

> <PUBCHEM_IUPAC_OPENEYE_NAME>
6-(3-aminopropoxy)-4-[4-(1,3-benzoxazol-2-ylamino)phenyl]isoindolin-1-one

> <PUBCHEM_IUPAC_CAS_NAME>
6-(3-aminopropoxy)-4-[4-(1,3-benzoxazol-2-ylamino)phenyl]-2,3-dihydroisoindol-1-one

> <PUBCHEM_IUPAC_NAME_MARKUP>
6-(3-aminopropoxy)-4-[4-(1,3-benzoxazol-2-ylamino)phenyl]-2,3-dihydroisoindol-1-one

> <PUBCHEM_IUPAC_NAME>
6-(3-aminopropoxy)-4-[4-(1,3-benzoxazol-2-ylamino)phenyl]-2,3-dihydroisoindol-1-one

> <PUBCHEM_IUPAC_SYSTEMATIC_NAME>
6-(3-azanylpropoxy)-4-[4-(1,3-benzoxazol-2-ylamino)phenyl]-2,3-dihydroisoindol-1-one

> <PUBCHEM_IUPAC_TRADITIONAL_NAME>
6-(3-aminopropoxy)-4-[4-(1,3-benzoxazol-2-ylamino)phenyl]isoindolin-1-one

> <PUBCHEM_IUPAC_INCHI>
InChI=1S/C24H22N4O3/c25-10-3-11-30-17-12-18(20-14-26-23(29)19(20)13-17)15-6-8-16(9-7-15)27-24-28-21-4-1-2-5-22(21)31-24/h1-2,4-9,12-13H,3,10-11,14,25H2,(H,26,29)(H,27,28)

> <PUBCHEM_IUPAC_INCHIKEY>
PDBPUXLUVDSLML-UHFFFAOYSA-N

> <PUBCHEM_XLOGP3_AA>
3.5

> <PUBCHEM_EXACT_MASS>
414.16919058

> <PUBCHEM_MOLECULAR_FORMULA>
C24H22N4O3

> <PUBCHEM_MOLECULAR_WEIGHT>
414.5

> <PUBCHEM_SMILES>
C1C2=C(C=C(C=C2C(=O)N1)OCCCN)C3=CC=C(C=C3)NC4=NC5=CC=CC=C5O4

> <PUBCHEM_OPENEYE_CAN_SMILES>
C1C2=C(C=C(C=C2C(=O)N1)OCCCN)C3=CC=C(C=C3)NC4=NC5=CC=CC=C5O4

> <PUBCHEM_OPENEYE_ISO_SMILES>
C1C2=C(C=C(C=C2C(=O)N1)OCCCN)C3=CC=C(C=C3)NC4=NC5=CC=CC=C5O4

> <PUBCHEM_CACTVS_TPSA>
102

> <PUBCHEM_MONOISOTOPIC_WEIGHT>
414.16919058

> <PUBCHEM_TOTAL_CHARGE>
0

> <PUBCHEM_HEAVY_ATOM_COUNT>
31

> <PUBCHEM_ATOM_DEF_STEREO_COUNT>
0

> <PUBCHEM_ATOM_UDEF_STEREO_COUNT>
0

> <PUBCHEM_BOND_DEF_STEREO_COUNT>
0

> <PUBCHEM_BOND_UDEF_STEREO_COUNT>
0

> <PUBCHEM_ISOTOPIC_ATOM_COUNT>
0

> <PUBCHEM_COMPONENT_COUNT>
1

> <PUBCHEM_CACTVS_TAUTO_COUNT>
-1

> <PUBCHEM_COORDINATE_TYPE>
1
5
255

> <PUBCHEM_BONDANNOTATIONS>
10  15  8
13  17  8
13  18  8
14  16  8
15  16  8
17  21  8
18  22  8
20  21  8
20  22  8
26  27  8
26  28  8
27  29  8
28  30  8
29  31  8
3  25  8
3  26  8
30  31  8
6  25  8
6  27  8
8  10  8
8  9  8
9  14  8

$$$$
