15941392
  -OEChem-03202506122D

 50 53  0     0  0  0  0  0  0999 V2000
    5.2758    0.3091    0.0000 F   0  0  0  0  0  0  0  0  0  0  0  0
    2.1583    4.2182    0.0000 F   0  0  0  0  0  0  0  0  0  0  0  0
    2.0000    2.8129    0.0000 F   0  0  0  0  0  0  0  0  0  0  0  0
    3.5637    4.0599    0.0000 F   0  0  0  0  0  0  0  0  0  0  0  0
    6.2646    0.4581    0.0000 O   0  0  0  0  0  0  0  0  0  0  0  0
   11.0877   -3.6138    0.0000 N   0  0  0  0  0  0  0  0  0  0  0  0
   11.0877   -1.3668    0.0000 N   0  0  0  0  0  0  0  0  0  0  0  0
    7.6188    1.5380    0.0000 N   0  0  0  0  0  0  0  0  0  0  0  0
   12.7635   -3.5249    0.0000 N   0  0  0  0  0  0  0  0  0  0  0  0
    6.0065    2.1708    0.0000 N   0  0  0  0  0  0  0  0  0  0  0  0
   13.6695   -1.9695    0.0000 N   0  0  0  0  0  0  0  0  0  0  0  0
   12.7519   -0.4557    0.0000 N   0  0  0  0  0  0  0  0  0  0  0  0
    9.6789   -2.4903    0.0000 C   0  0  0  0  0  0  0  0  0  0  0  0
   10.1128   -3.3912    0.0000 C   0  0  0  0  0  0  0  0  0  0  0  0
   10.1128   -1.5893    0.0000 C   0  0  0  0  0  0  0  0  0  0  0  0
    9.4893   -0.8075    0.0000 C   0  0  0  0  0  0  0  0  0  0  0  0
   11.8695   -2.9903    0.0000 C   0  0  0  0  0  0  0  0  0  0  0  0
   11.8695   -1.9903    0.0000 C   0  0  0  0  0  0  0  0  0  0  0  0
    8.5004   -0.9565    0.0000 C   0  0  0  0  0  0  0  0  0  0  0  0
    9.8546    0.1234    0.0000 C   0  0  0  0  0  0  0  0  0  0  0  0
    8.2423    0.7562    0.0000 C   0  0  0  0  0  0  0  0  0  0  0  0
    7.8769   -0.1747    0.0000 C   0  0  0  0  0  0  0  0  0  0  0  0
    9.2311    0.9052    0.0000 C   0  0  0  0  0  0  0  0  0  0  0  0
   12.7635   -1.4556    0.0000 C   0  0  0  0  0  0  0  0  0  0  0  0
    5.0176    2.0218    0.0000 C   0  0  0  0  0  0  0  0  0  0  0  0
    6.6300    1.3890    0.0000 C   0  0  0  0  0  0  0  0  0  0  0  0
    3.4053    2.6546    0.0000 C   0  0  0  0  0  0  0  0  0  0  0  0
   13.6695   -3.0111    0.0000 C   0  0  0  0  0  0  0  0  0  0  0  0
    4.3942    2.8036    0.0000 C   0  0  0  0  0  0  0  0  0  0  0  0
    4.6523    1.0909    0.0000 C   0  0  0  0  0  0  0  0  0  0  0  0
    3.0400    1.7237    0.0000 C   0  0  0  0  0  0  0  0  0  0  0  0
    3.6635    0.9419    0.0000 C   0  0  0  0  0  0  0  0  0  0  0  0
    2.7818    3.4364    0.0000 C   0  0  0  0  0  0  0  0  0  0  0  0
    9.1941   -2.1037    0.0000 H   0  0  0  0  0  0  0  0  0  0  0  0
    9.1941   -2.8768    0.0000 H   0  0  0  0  0  0  0  0  0  0  0  0
    9.5083   -3.5292    0.0000 H   0  0  0  0  0  0  0  0  0  0  0  0
   10.1128   -4.0112    0.0000 H   0  0  0  0  0  0  0  0  0  0  0  0
   11.2256   -4.2182    0.0000 H   0  0  0  0  0  0  0  0  0  0  0  0
    8.2739   -1.5337    0.0000 H   0  0  0  0  0  0  0  0  0  0  0  0
   10.4677    0.2158    0.0000 H   0  0  0  0  0  0  0  0  0  0  0  0
    7.2639   -0.2671    0.0000 H   0  0  0  0  0  0  0  0  0  0  0  0
    9.4576    1.4824    0.0000 H   0  0  0  0  0  0  0  0  0  0  0  0
    7.8453    2.1152    0.0000 H   0  0  0  0  0  0  0  0  0  0  0  0
    4.6207    3.3807    0.0000 H   0  0  0  0  0  0  0  0  0  0  0  0
    6.2330    2.7480    0.0000 H   0  0  0  0  0  0  0  0  0  0  0  0
   14.2053   -3.3232    0.0000 H   0  0  0  0  0  0  0  0  0  0  0  0
    2.4269    1.6313    0.0000 H   0  0  0  0  0  0  0  0  0  0  0  0
   13.2852   -0.1395    0.0000 H   0  0  0  0  0  0  0  0  0  0  0  0
   12.2114   -0.1519    0.0000 H   0  0  0  0  0  0  0  0  0  0  0  0
    3.4370    0.3647    0.0000 H   0  0  0  0  0  0  0  0  0  0  0  0
  1 30  1  0  0  0  0
  2 33  1  0  0  0  0
  3 33  1  0  0  0  0
  4 33  1  0  0  0  0
  5 26  2  0  0  0  0
  6 14  1  0  0  0  0
  6 17  1  0  0  0  0
  6 38  1  0  0  0  0
  7 15  2  0  0  0  0
  7 18  1  0  0  0  0
  8 21  1  0  0  0  0
  8 26  1  0  0  0  0
  8 43  1  0  0  0  0
  9 17  2  0  0  0  0
  9 28  1  0  0  0  0
 10 25  1  0  0  0  0
 10 26  1  0  0  0  0
 10 45  1  0  0  0  0
 11 24  1  0  0  0  0
 11 28  2  0  0  0  0
 12 24  1  0  0  0  0
 12 48  1  0  0  0  0
 12 49  1  0  0  0  0
 13 14  1  0  0  0  0
 13 15  1  0  0  0  0
 13 34  1  0  0  0  0
 13 35  1  0  0  0  0
 14 36  1  0  0  0  0
 14 37  1  0  0  0  0
 15 16  1  0  0  0  0
 16 19  2  0  0  0  0
 16 20  1  0  0  0  0
 17 18  1  0  0  0  0
 18 24  2  0  0  0  0
 19 22  1  0  0  0  0
 19 39  1  0  0  0  0
 20 23  2  0  0  0  0
 20 40  1  0  0  0  0
 21 22  2  0  0  0  0
 21 23  1  0  0  0  0
 22 41  1  0  0  0  0
 23 42  1  0  0  0  0
 25 29  1  0  0  0  0
 25 30  2  0  0  0  0
 27 29  2  0  0  0  0
 27 31  1  0  0  0  0
 27 33  1  0  0  0  0
 28 46  1  0  0  0  0
 29 44  1  0  0  0  0
 30 32  1  0  0  0  0
 31 32  2  0  0  0  0
 31 47  1  0  0  0  0
 32 50  1  0  0  0  0
M  END
> <PUBCHEM_COMPOUND_CID>
15941392

> <PUBCHEM_COMPOUND_CANONICALIZED>
1

> <PUBCHEM_CACTVS_COMPLEXITY>
713

> <PUBCHEM_CACTVS_HBOND_ACCEPTOR>
10

> <PUBCHEM_CACTVS_HBOND_DONOR>
4

> <PUBCHEM_CACTVS_ROTATABLE_BOND>
3

> <PUBCHEM_CACTVS_SUBSKEYS>
AAADceB7ocAAAAAAAAAAAAAAAAAAAAAAAAA8YIAABAAAAAAB0AAAHwAQAAAADAjBGhw18JbIEACoAyZjdACCgCkxEqAJ2KA4dJiIaKLA2dGUJAholALIyCcQgIAOCAAAQAAAAAAQAACAAAAAAAAAAAAAAA==

> <PUBCHEM_IUPAC_OPENEYE_NAME>
1-[4-(4-amino-8,9-dihydro-7H-pyrimido[4,5-b][1,4]diazepin-6-yl)phenyl]-3-[2-fluoro-5-(trifluoromethyl)phenyl]urea

> <PUBCHEM_IUPAC_CAS_NAME>
1-[4-(4-amino-8,9-dihydro-7H-pyrimido[4,5-b][1,4]diazepin-6-yl)phenyl]-3-[2-fluoro-5-(trifluoromethyl)phenyl]urea

> <PUBCHEM_IUPAC_NAME_MARKUP>
1-[4-(4-amino-8,9-dihydro-7<I>H</I>-pyrimido[4,5-b][1,4]diazepin-6-yl)phenyl]-3-[2-fluoro-5-(trifluoromethyl)phenyl]urea

> <PUBCHEM_IUPAC_NAME>
1-[4-(4-amino-8,9-dihydro-7H-pyrimido[4,5-b][1,4]diazepin-6-yl)phenyl]-3-[2-fluoro-5-(trifluoromethyl)phenyl]urea

> <PUBCHEM_IUPAC_SYSTEMATIC_NAME>
1-[4-(4-azanyl-8,9-dihydro-7H-pyrimido[4,5-b][1,4]diazepin-6-yl)phenyl]-3-[2-fluoranyl-5-(trifluoromethyl)phenyl]urea

> <PUBCHEM_IUPAC_TRADITIONAL_NAME>
1-[4-(4-amino-8,9-dihydro-7H-pyrimido[4,5-b][1,4]diazepin-6-yl)phenyl]-3-[2-fluoro-5-(trifluoromethyl)phenyl]urea

> <PUBCHEM_IUPAC_INCHI>
InChI=1S/C21H17F4N7O/c22-14-6-3-12(21(23,24)25)9-16(14)32-20(33)30-13-4-1-11(2-5-13)15-7-8-27-19-17(31-15)18(26)28-10-29-19/h1-6,9-10H,7-8H2,(H2,30,32,33)(H3,26,27,28,29)

> <PUBCHEM_IUPAC_INCHIKEY>
QONPPIZSNSSCSK-UHFFFAOYSA-N

> <PUBCHEM_XLOGP3_AA>
2.8

> <PUBCHEM_EXACT_MASS>
459.14307084

> <PUBCHEM_MOLECULAR_FORMULA>
C21H17F4N7O

> <PUBCHEM_MOLECULAR_WEIGHT>
459.4

> <PUBCHEM_SMILES>
C1CNC2=NC=NC(=C2N=C1C3=CC=C(C=C3)NC(=O)NC4=C(C=CC(=C4)C(F)(F)F)F)N

> <PUBCHEM_OPENEYE_CAN_SMILES>
C1CNC2=NC=NC(=C2N=C1C3=CC=C(C=C3)NC(=O)NC4=C(C=CC(=C4)C(F)(F)F)F)N

> <PUBCHEM_OPENEYE_ISO_SMILES>
C1CNC2=NC=NC(=C2N=C1C3=CC=C(C=C3)NC(=O)NC4=C(C=CC(=C4)C(F)(F)F)F)N

> <PUBCHEM_CACTVS_TPSA>
117

> <PUBCHEM_MONOISOTOPIC_WEIGHT>
459.14307084

> <PUBCHEM_TOTAL_CHARGE>
0

> <PUBCHEM_HEAVY_ATOM_COUNT>
33

> <PUBCHEM_ATOM_DEF_STEREO_COUNT>
0

> <PUBCHEM_ATOM_UDEF_STEREO_COUNT>
0

> <PUBCHEM_BOND_DEF_STEREO_COUNT>
0

> <PUBCHEM_BOND_UDEF_STEREO_COUNT>
0

> <PUBCHEM_ISOTOPIC_ATOM_COUNT>
0

> <PUBCHEM_COMPONENT_COUNT>
1

> <PUBCHEM_CACTVS_TAUTO_COUNT>
-1

> <PUBCHEM_COORDINATE_TYPE>
1
5
255

> <PUBCHEM_BONDANNOTATIONS>
11  24  8
11  28  8
16  19  8
16  20  8
17  18  8
18  24  8
19  22  8
20  23  8
21  22  8
21  23  8
25  29  8
25  30  8
27  29  8
27  31  8
30  32  8
31  32  8
9  17  8
9  28  8

$$$$
