5330788
  -OEChem-03202505232D

 67 73  0     0  0  0  0  0  0999 V2000
    2.2592   -4.1694    0.0000 O   0  0  0  0  0  0  0  0  0  0  0  0
   12.8271   -0.5410    0.0000 O   0  0  0  0  0  0  0  0  0  0  0  0
   12.8271    2.9695    0.0000 O   0  0  0  0  0  0  0  0  0  0  0  0
    6.2422   -3.8007    0.0000 N   0  0  0  0  0  0  0  0  0  0  0  0
    9.1012    0.0472    0.0000 N   0  0  0  0  0  0  0  0  0  0  0  0
   11.4933    3.9447    0.0000 N   0  0  0  0  0  0  0  0  0  0  0  0
   13.1001    1.2142    0.0000 N   0  0  0  0  0  0  0  0  0  0  0  0
    5.2464   -3.8929    0.0000 C   0  0  0  0  0  0  0  0  0  0  0  0
    4.8284   -4.8013    0.0000 C   0  0  0  0  0  0  0  0  0  0  0  0
    4.6687   -3.0766    0.0000 C   0  0  0  0  0  0  0  0  0  0  0  0
    3.8326   -4.8935    0.0000 C   0  0  0  0  0  0  0  0  0  0  0  0
    3.6730   -3.1688    0.0000 C   0  0  0  0  0  0  0  0  0  0  0  0
    3.2549   -4.0772    0.0000 C   0  0  0  0  0  0  0  0  0  0  0  0
    6.6602   -2.8923    0.0000 C   0  0  0  0  0  0  0  0  0  0  0  0
   10.7042    0.2143    0.0000 C   0  0  0  0  0  0  0  0  0  0  0  0
    9.8382    0.7143    0.0000 C   0  0  0  0  0  0  0  0  0  0  0  0
    7.6560   -2.8002    0.0000 C   0  0  0  0  0  0  0  0  0  0  0  0
    9.5063   -0.8606    0.0000 C   0  0  0  0  0  0  0  0  0  0  0  0
   10.4950   -0.7576    0.0000 C   0  0  0  0  0  0  0  0  0  0  0  0
    8.0740   -1.8917    0.0000 C   0  0  0  0  0  0  0  0  0  0  0  0
   10.7042    2.2142    0.0000 C   0  0  0  0  0  0  0  0  0  0  0  0
    9.8382    1.7142    0.0000 C   0  0  0  0  0  0  0  0  0  0  0  0
   11.5702    0.7143    0.0000 C   0  0  0  0  0  0  0  0  0  0  0  0
    9.0698   -1.7996    0.0000 C   0  0  0  0  0  0  0  0  0  0  0  0
   11.5702    1.7142    0.0000 C   0  0  0  0  0  0  0  0  0  0  0  0
   10.7203    3.2558    0.0000 C   0  0  0  0  0  0  0  0  0  0  0  0
    9.8222    3.7835    0.0000 C   0  0  0  0  0  0  0  0  0  0  0  0
   11.1158   -1.5863    0.0000 C   0  0  0  0  0  0  0  0  0  0  0  0
    8.9282    2.2211    0.0000 C   0  0  0  0  0  0  0  0  0  0  0  0
    9.6712   -2.6425    0.0000 C   0  0  0  0  0  0  0  0  0  0  0  0
   12.5165    0.4095    0.0000 C   0  0  0  0  0  0  0  0  0  0  0  0
   12.5165    2.0190    0.0000 C   0  0  0  0  0  0  0  0  0  0  0  0
    8.9202    3.2627    0.0000 C   0  0  0  0  0  0  0  0  0  0  0  0
   10.7011   -2.5351    0.0000 C   0  0  0  0  0  0  0  0  0  0  0  0
   10.0479    4.7941    0.0000 C   0  0  0  0  0  0  0  0  0  0  0  0
   11.0786    4.8935    0.0000 C   0  0  0  0  0  0  0  0  0  0  0  0
   12.4702    3.7309    0.0000 C   0  0  0  0  0  0  0  0  0  0  0  0
    5.5056   -3.3297    0.0000 H   0  0  0  0  0  0  0  0  0  0  0  0
    4.7774   -5.4192    0.0000 H   0  0  0  0  0  0  0  0  0  0  0  0
    5.4280   -4.9588    0.0000 H   0  0  0  0  0  0  0  0  0  0  0  0
    5.2293   -2.8118    0.0000 H   0  0  0  0  0  0  0  0  0  0  0  0
    4.5053   -2.4786    0.0000 H   0  0  0  0  0  0  0  0  0  0  0  0
    3.2720   -5.1583    0.0000 H   0  0  0  0  0  0  0  0  0  0  0  0
    3.9961   -5.4915    0.0000 H   0  0  0  0  0  0  0  0  0  0  0  0
    3.7239   -2.5509    0.0000 H   0  0  0  0  0  0  0  0  0  0  0  0
    3.0733   -3.0113    0.0000 H   0  0  0  0  0  0  0  0  0  0  0  0
    2.9957   -4.6404    0.0000 H   0  0  0  0  0  0  0  0  0  0  0  0
    6.6003   -4.3068    0.0000 H   0  0  0  0  0  0  0  0  0  0  0  0
    6.7112   -2.2744    0.0000 H   0  0  0  0  0  0  0  0  0  0  0  0
    6.0606   -2.7349    0.0000 H   0  0  0  0  0  0  0  0  0  0  0  0
    7.6050   -3.4181    0.0000 H   0  0  0  0  0  0  0  0  0  0  0  0
    8.2556   -2.9576    0.0000 H   0  0  0  0  0  0  0  0  0  0  0  0
    8.1250   -1.2738    0.0000 H   0  0  0  0  0  0  0  0  0  0  0  0
    7.4744   -1.7343    0.0000 H   0  0  0  0  0  0  0  0  0  0  0  0
    8.4945    0.1750    0.0000 H   0  0  0  0  0  0  0  0  0  0  0  0
    2.0000   -4.7326    0.0000 H   0  0  0  0  0  0  0  0  0  0  0  0
   11.7316   -1.5149    0.0000 H   0  0  0  0  0  0  0  0  0  0  0  0
    8.3949    1.9049    0.0000 H   0  0  0  0  0  0  0  0  0  0  0  0
    9.4164   -3.2077    0.0000 H   0  0  0  0  0  0  0  0  0  0  0  0
    8.3820    3.5706    0.0000 H   0  0  0  0  0  0  0  0  0  0  0  0
   11.0670   -3.0356    0.0000 H   0  0  0  0  0  0  0  0  0  0  0  0
   13.7201    1.2142    0.0000 H   0  0  0  0  0  0  0  0  0  0  0  0
    9.6374    5.2587    0.0000 H   0  0  0  0  0  0  0  0  0  0  0  0
   11.3928    5.4280    0.0000 H   0  0  0  0  0  0  0  0  0  0  0  0
   12.3377    3.1252    0.0000 H   0  0  0  0  0  0  0  0  0  0  0  0
   13.0759    3.5984    0.0000 H   0  0  0  0  0  0  0  0  0  0  0  0
   12.6027    4.3366    0.0000 H   0  0  0  0  0  0  0  0  0  0  0  0
  1 13  1  0  0  0  0
  1 56  1  0  0  0  0
  2 31  2  0  0  0  0
  3 32  2  0  0  0  0
  4  8  1  0  0  0  0
  4 14  1  0  0  0  0
  4 48  1  0  0  0  0
  5 16  1  0  0  0  0
  5 18  1  0  0  0  0
  5 55  1  0  0  0  0
  6 26  1  0  0  0  0
  6 36  1  0  0  0  0
  6 37  1  0  0  0  0
  7 31  1  0  0  0  0
  7 32  1  0  0  0  0
  7 62  1  0  0  0  0
  8  9  1  0  0  0  0
  8 10  1  0  0  0  0
  8 38  1  0  0  0  0
  9 11  1  0  0  0  0
  9 39  1  0  0  0  0
  9 40  1  0  0  0  0
 10 12  1  0  0  0  0
 10 41  1  0  0  0  0
 10 42  1  0  0  0  0
 11 13  1  0  0  0  0
 11 43  1  0  0  0  0
 11 44  1  0  0  0  0
 12 13  1  0  0  0  0
 12 45  1  0  0  0  0
 12 46  1  0  0  0  0
 13 47  1  0  0  0  0
 14 17  1  0  0  0  0
 14 49  1  0  0  0  0
 14 50  1  0  0  0  0
 15 16  2  0  0  0  0
 15 19  1  0  0  0  0
 15 23  1  0  0  0  0
 16 22  1  0  0  0  0
 17 20  1  0  0  0  0
 17 51  1  0  0  0  0
 17 52  1  0  0  0  0
 18 19  1  0  0  0  0
 18 24  2  0  0  0  0
 19 28  2  0  0  0  0
 20 24  1  0  0  0  0
 20 53  1  0  0  0  0
 20 54  1  0  0  0  0
 21 22  2  0  0  0  0
 21 25  1  0  0  0  0
 21 26  1  0  0  0  0
 22 29  1  0  0  0  0
 23 25  2  0  0  0  0
 23 31  1  0  0  0  0
 24 30  1  0  0  0  0
 25 32  1  0  0  0  0
 26 27  2  0  0  0  0
 27 33  1  0  0  0  0
 27 35  1  0  0  0  0
 28 34  1  0  0  0  0
 28 57  1  0  0  0  0
 29 33  2  0  0  0  0
 29 58  1  0  0  0  0
 30 34  2  0  0  0  0
 30 59  1  0  0  0  0
 33 60  1  0  0  0  0
 34 61  1  0  0  0  0
 35 36  2  0  0  0  0
 35 63  1  0  0  0  0
 36 64  1  0  0  0  0
 37 65  1  0  0  0  0
 37 66  1  0  0  0  0
 37 67  1  0  0  0  0
M  END
> <PUBCHEM_COMPOUND_CID>
5330788

> <PUBCHEM_COMPOUND_CANONICALIZED>
1

> <PUBCHEM_CACTVS_COMPLEXITY>
890

> <PUBCHEM_CACTVS_HBOND_ACCEPTOR>
4

> <PUBCHEM_CACTVS_HBOND_DONOR>
4

> <PUBCHEM_CACTVS_ROTATABLE_BOND>
5

> <PUBCHEM_CACTVS_SUBSKEYS>
AAADceB7sAAAAAAAAAAAAAAAAAAAAWLFgAAwYMGAAAAAAFjB/gAAHgAQCAAADDzhngY+wPPNkgCoAzV3VACCgCA1AiAI2aE4ZNgIMPLAlZGEYQhklCDIyQe9ycCeyAACQAASAACQgASAACQAAAAAAAAAAA==

> <PUBCHEM_IUPAC_OPENEYE_NAME>
5-[3-[(4-hydroxycyclohexyl)amino]propyl]-18-methyl-3,13,18-triazahexacyclo[14.7.0.02,10.04,9.011,15.017,21]tricosa-1(16),2(10),4,6,8,11(15),17(21),19,22-nonaene-12,14-dione

> <PUBCHEM_IUPAC_CAS_NAME>
5-[3-[(4-hydroxycyclohexyl)amino]propyl]-18-methyl-3,13,18-triazahexacyclo[14.7.0.02,10.04,9.011,15.017,21]tricosa-1(16),2(10),4,6,8,11(15),17(21),19,22-nonaene-12,14-dione

> <PUBCHEM_IUPAC_NAME_MARKUP>
5-[3-[(4-hydroxycyclohexyl)amino]propyl]-18-methyl-3,13,18-triazahexacyclo[14.7.0.0<SUP>2,10</SUP>.0<SUP>4,9</SUP>.0<SUP>11,15</SUP>.0<SUP>17,21</SUP>]tricosa-1(16),2(10),4,6,8,11(15),17(21),19,22-nonaene-12,14-dione

> <PUBCHEM_IUPAC_NAME>
5-[3-[(4-hydroxycyclohexyl)amino]propyl]-18-methyl-3,13,18-triazahexacyclo[14.7.0.02,10.04,9.011,15.017,21]tricosa-1(16),2(10),4,6,8,11(15),17(21),19,22-nonaene-12,14-dione

> <PUBCHEM_IUPAC_SYSTEMATIC_NAME>
18-methyl-5-[3-[(4-oxidanylcyclohexyl)amino]propyl]-3,13,18-triazahexacyclo[14.7.0.02,10.04,9.011,15.017,21]tricosa-1(16),2(10),4,6,8,11(15),17(21),19,22-nonaene-12,14-dione

> <PUBCHEM_IUPAC_TRADITIONAL_NAME>
5-[3-[(4-hydroxycyclohexyl)amino]propyl]-18-methyl-3,13,18-triazahexacyclo[14.7.0.02,10.04,9.011,15.017,21]tricosa-1(16),2(10),4,6,8,11(15),17(21),19,22-nonaene-12,14-quinone

> <PUBCHEM_IUPAC_INCHI>
InChI=1S/C30H30N4O3/c1-34-15-13-17-7-12-21-23(28(17)34)25-24(29(36)33-30(25)37)22-20-6-2-4-16(26(20)32-27(21)22)5-3-14-31-18-8-10-19(35)11-9-18/h2,4,6-7,12-13,15,18-19,31-32,35H,3,5,8-11,14H2,1H3,(H,33,36,37)

> <PUBCHEM_IUPAC_INCHIKEY>
SDUWPCYMTHMQAZ-UHFFFAOYSA-N

> <PUBCHEM_XLOGP3_AA>
4.3

> <PUBCHEM_EXACT_MASS>
494.23179083

> <PUBCHEM_MOLECULAR_FORMULA>
C30H30N4O3

> <PUBCHEM_MOLECULAR_WEIGHT>
494.6

> <PUBCHEM_SMILES>
CN1C=CC2=C1C3=C(C=C2)C4=C(C5=CC=CC(=C5N4)CCCNC6CCC(CC6)O)C7=C3C(=O)NC7=O

> <PUBCHEM_OPENEYE_CAN_SMILES>
CN1C=CC2=C1C3=C(C=C2)C4=C(C5=CC=CC(=C5N4)CCCNC6CCC(CC6)O)C7=C3C(=O)NC7=O

> <PUBCHEM_OPENEYE_ISO_SMILES>
CN1C=CC2=C1C3=C(C=C2)C4=C(C5=CC=CC(=C5N4)CCCNC6CCC(CC6)O)C7=C3C(=O)NC7=O

> <PUBCHEM_CACTVS_TPSA>
99.2

> <PUBCHEM_MONOISOTOPIC_WEIGHT>
494.23179083

> <PUBCHEM_TOTAL_CHARGE>
0

> <PUBCHEM_HEAVY_ATOM_COUNT>
37

> <PUBCHEM_ATOM_DEF_STEREO_COUNT>
0

> <PUBCHEM_ATOM_UDEF_STEREO_COUNT>
0

> <PUBCHEM_BOND_DEF_STEREO_COUNT>
0

> <PUBCHEM_BOND_UDEF_STEREO_COUNT>
0

> <PUBCHEM_ISOTOPIC_ATOM_COUNT>
0

> <PUBCHEM_COMPONENT_COUNT>
1

> <PUBCHEM_CACTVS_TAUTO_COUNT>
-1

> <PUBCHEM_COORDINATE_TYPE>
1
5
255

> <PUBCHEM_BONDANNOTATIONS>
15  16  8
15  19  8
15  23  8
16  22  8
18  19  8
18  24  8
19  28  8
21  22  8
21  25  8
21  26  8
22  29  8
23  25  8
24  30  8
26  27  8
27  33  8
27  35  8
28  34  8
29  33  8
30  34  8
35  36  8
5  16  8
5  18  8
6  26  8
6  36  8

$$$$
