44317538
  -OEChem-03202505232D

 36 39  0     0  0  0  0  0  0999 V2000
    7.3991   -2.5359    0.0000 Cl  0  0  0  0  0  0  0  0  0  0  0  0
    7.6255    1.1429    0.0000 S   0  0  0  0  0  0  0  0  0  0  0  0
    7.4062    2.1186    0.0000 O   0  0  0  0  0  0  0  0  0  0  0  0
    7.8447    0.1672    0.0000 O   0  0  0  0  0  0  0  0  0  0  0  0
    4.5274    0.3247    0.0000 N   0  0  0  0  0  0  0  0  0  0  0  0
    6.6498    0.9237    0.0000 N   0  0  0  0  0  0  0  0  0  0  0  0
    2.0000   -0.7995    0.0000 N   0  0  0  0  0  0  0  0  0  0  0  0
    5.3364   -0.2631    0.0000 C   0  0  0  0  0  0  0  0  0  0  0  0
    5.0274   -1.2142    0.0000 C   0  0  0  0  0  0  0  0  0  0  0  0
    4.0274   -1.2142    0.0000 C   0  0  0  0  0  0  0  0  0  0  0  0
    6.3518   -0.0309    0.0000 C   0  0  0  0  0  0  0  0  0  0  0  0
    3.7183   -0.2631    0.0000 C   0  0  0  0  0  0  0  0  0  0  0  0
    5.7123   -1.9989    0.0000 C   0  0  0  0  0  0  0  0  0  0  0  0
    7.0547   -0.7995    0.0000 C   0  0  0  0  0  0  0  0  0  0  0  0
    6.7328   -1.7902    0.0000 C   0  0  0  0  0  0  0  0  0  0  0  0
    3.3424   -1.9989    0.0000 C   0  0  0  0  0  0  0  0  0  0  0  0
    2.7029   -0.0309    0.0000 C   0  0  0  0  0  0  0  0  0  0  0  0
    8.6011    1.3621    0.0000 C   0  0  0  0  0  0  0  0  0  0  0  0
    2.3219   -1.7902    0.0000 C   0  0  0  0  0  0  0  0  0  0  0  0
    9.2788    0.6268    0.0000 C   0  0  0  0  0  0  0  0  0  0  0  0
    8.8991    2.3167    0.0000 C   0  0  0  0  0  0  0  0  0  0  0  0
   10.2545    0.8460    0.0000 C   0  0  0  0  0  0  0  0  0  0  0  0
    9.8748    2.5359    0.0000 C   0  0  0  0  0  0  0  0  0  0  0  0
   10.5525    1.8006    0.0000 C   0  0  0  0  0  0  0  0  0  0  0  0
    4.5274    0.9447    0.0000 H   0  0  0  0  0  0  0  0  0  0  0  0
    5.5139   -2.5863    0.0000 H   0  0  0  0  0  0  0  0  0  0  0  0
    6.2296    1.3796    0.0000 H   0  0  0  0  0  0  0  0  0  0  0  0
    7.6607   -0.6683    0.0000 H   0  0  0  0  0  0  0  0  0  0  0  0
    3.5408   -2.5863    0.0000 H   0  0  0  0  0  0  0  0  0  0  0  0
    2.5182    0.5610    0.0000 H   0  0  0  0  0  0  0  0  0  0  0  0
    1.9088   -2.2525    0.0000 H   0  0  0  0  0  0  0  0  0  0  0  0
    9.0941    0.0349    0.0000 H   0  0  0  0  0  0  0  0  0  0  0  0
    8.4790    2.7726    0.0000 H   0  0  0  0  0  0  0  0  0  0  0  0
   10.6747    0.3901    0.0000 H   0  0  0  0  0  0  0  0  0  0  0  0
   10.0596    3.1277    0.0000 H   0  0  0  0  0  0  0  0  0  0  0  0
   11.1574    1.9365    0.0000 H   0  0  0  0  0  0  0  0  0  0  0  0
  1 15  1  0  0  0  0
  2  3  2  0  0  0  0
  2  4  2  0  0  0  0
  2  6  1  0  0  0  0
  2 18  1  0  0  0  0
  5  8  1  0  0  0  0
  5 12  1  0  0  0  0
  5 25  1  0  0  0  0
  6 11  1  0  0  0  0
  6 27  1  0  0  0  0
  7 17  2  0  0  0  0
  7 19  1  0  0  0  0
  8  9  2  0  0  0  0
  8 11  1  0  0  0  0
  9 10  1  0  0  0  0
  9 13  1  0  0  0  0
 10 12  2  0  0  0  0
 10 16  1  0  0  0  0
 11 14  2  0  0  0  0
 12 17  1  0  0  0  0
 13 15  2  0  0  0  0
 13 26  1  0  0  0  0
 14 15  1  0  0  0  0
 14 28  1  0  0  0  0
 16 19  2  0  0  0  0
 16 29  1  0  0  0  0
 17 30  1  0  0  0  0
 18 20  2  0  0  0  0
 18 21  1  0  0  0  0
 19 31  1  0  0  0  0
 20 22  1  0  0  0  0
 20 32  1  0  0  0  0
 21 23  2  0  0  0  0
 21 33  1  0  0  0  0
 22 24  2  0  0  0  0
 22 34  1  0  0  0  0
 23 24  1  0  0  0  0
 23 35  1  0  0  0  0
 24 36  1  0  0  0  0
M  END
> <PUBCHEM_COMPOUND_CID>
44317538

> <PUBCHEM_COMPOUND_CANONICALIZED>
1

> <PUBCHEM_CACTVS_COMPLEXITY>
547

> <PUBCHEM_CACTVS_HBOND_ACCEPTOR>
4

> <PUBCHEM_CACTVS_HBOND_DONOR>
2

> <PUBCHEM_CACTVS_ROTATABLE_BOND>
3

> <PUBCHEM_CACTVS_SUBSKEYS>
AAADccB7MABEAAAAAAAAAAAAAAAAAWAAAAA8YIAAAAAAAFgB/gAAHAYQQAAADArBXiQ8wfLJkAKgAzRnRHDCgDQxFyAI2Tg4dpgIYOLBk5GUIAhgkADIyAcQgMAOgABAYAICACAAAIDABAQAQAAAAAAAAA==

> <PUBCHEM_IUPAC_OPENEYE_NAME>
N-(6-chloro-9H-pyrido[3,4-b]indol-8-yl)benzenesulfonamide

> <PUBCHEM_IUPAC_CAS_NAME>
N-(6-chloro-9H-pyrido[3,4-b]indol-8-yl)benzenesulfonamide

> <PUBCHEM_IUPAC_NAME_MARKUP>
<I>N</I>-(6-chloro-9<I>H</I>-pyrido[3,4-b]indol-8-yl)benzenesulfonamide

> <PUBCHEM_IUPAC_NAME>
N-(6-chloro-9H-pyrido[3,4-b]indol-8-yl)benzenesulfonamide

> <PUBCHEM_IUPAC_SYSTEMATIC_NAME>
N-(6-chloranyl-9H-pyrido[3,4-b]indol-8-yl)benzenesulfonamide

> <PUBCHEM_IUPAC_TRADITIONAL_NAME>
N-(6-chloro-9H-beta-carbolin-8-yl)benzenesulfonamide

> <PUBCHEM_IUPAC_INCHI>
InChI=1S/C17H12ClN3O2S/c18-11-8-14-13-6-7-19-10-16(13)20-17(14)15(9-11)21-24(22,23)12-4-2-1-3-5-12/h1-10,20-21H

> <PUBCHEM_IUPAC_INCHIKEY>
FYYSYFOJZPFEJJ-UHFFFAOYSA-N

> <PUBCHEM_XLOGP3_AA>
3.5

> <PUBCHEM_EXACT_MASS>
357.0338755

> <PUBCHEM_MOLECULAR_FORMULA>
C17H12ClN3O2S

> <PUBCHEM_MOLECULAR_WEIGHT>
357.8

> <PUBCHEM_SMILES>
C1=CC=C(C=C1)S(=O)(=O)NC2=CC(=CC3=C2NC4=C3C=CN=C4)Cl

> <PUBCHEM_OPENEYE_CAN_SMILES>
C1=CC=C(C=C1)S(=O)(=O)NC2=CC(=CC3=C2NC4=C3C=CN=C4)Cl

> <PUBCHEM_OPENEYE_ISO_SMILES>
C1=CC=C(C=C1)S(=O)(=O)NC2=CC(=CC3=C2NC4=C3C=CN=C4)Cl

> <PUBCHEM_CACTVS_TPSA>
83.2

> <PUBCHEM_MONOISOTOPIC_WEIGHT>
357.0338755

> <PUBCHEM_TOTAL_CHARGE>
0

> <PUBCHEM_HEAVY_ATOM_COUNT>
24

> <PUBCHEM_ATOM_DEF_STEREO_COUNT>
0

> <PUBCHEM_ATOM_UDEF_STEREO_COUNT>
0

> <PUBCHEM_BOND_DEF_STEREO_COUNT>
0

> <PUBCHEM_BOND_UDEF_STEREO_COUNT>
0

> <PUBCHEM_ISOTOPIC_ATOM_COUNT>
0

> <PUBCHEM_COMPONENT_COUNT>
1

> <PUBCHEM_CACTVS_TAUTO_COUNT>
-1

> <PUBCHEM_COORDINATE_TYPE>
1
5
255

> <PUBCHEM_BONDANNOTATIONS>
10  12  8
10  16  8
11  14  8
12  17  8
13  15  8
14  15  8
16  19  8
18  20  8
18  21  8
20  22  8
21  23  8
22  24  8
23  24  8
5  12  8
5  8  8
7  17  8
7  19  8
8  11  8
8  9  8
9  10  8
9  13  8

$$$$
