24995659
  -OEChem-03202504342D

 53 55  0     1  0  0  0  0  0999 V2000
    3.3660   -0.8060    0.0000 F   0  0  0  0  0  0  0  0  0  0  0  0
    2.0000   -0.4400    0.0000 F   0  0  0  0  0  0  0  0  0  0  0  0
    2.3660    0.9260    0.0000 F   0  0  0  0  0  0  0  0  0  0  0  0
    3.7320   -1.4400    0.0000 O   0  0  0  0  0  0  0  0  0  0  0  0
    6.3301    2.0600    0.0000 N   0  0  3  0  0  0  0  0  0  0  0  0
    8.0622    3.0600    0.0000 N   0  0  0  0  0  0  0  0  0  0  0  0
    5.4641    0.5600    0.0000 N   0  0  0  0  0  0  0  0  0  0  0  0
    6.3301   -2.9400    0.0000 N   0  0  0  0  0  0  0  0  0  0  0  0
    4.5981   -2.9400    0.0000 N   0  0  0  0  0  0  0  0  0  0  0  0
    8.0622    2.0600    0.0000 C   0  0  2  0  0  0  0  0  0  0  0  0
    7.1962    1.5600    0.0000 C   0  0  0  0  0  0  0  0  0  0  0  0
    8.9282    1.5600    0.0000 C   0  0  0  0  0  0  0  0  0  0  0  0
    6.3301    3.0600    0.0000 C   0  0  0  0  0  0  0  0  0  0  0  0
    9.7942    2.0600    0.0000 C   0  0  0  0  0  0  0  0  0  0  0  0
    7.1962    3.5600    0.0000 C   0  0  0  0  0  0  0  0  0  0  0  0
    5.4641    1.5600    0.0000 C   0  0  0  0  0  0  0  0  0  0  0  0
   10.6603    1.5600    0.0000 C   0  0  0  0  0  0  0  0  0  0  0  0
    9.7942    3.0600    0.0000 C   0  0  0  0  0  0  0  0  0  0  0  0
    4.5981    2.0600    0.0000 C   0  0  0  0  0  0  0  0  0  0  0  0
    4.5981    0.0600    0.0000 C   0  0  0  0  0  0  0  0  0  0  0  0
    3.7320    1.5600    0.0000 C   0  0  0  0  0  0  0  0  0  0  0  0
    3.7320    0.5600    0.0000 C   0  0  0  0  0  0  0  0  0  0  0  0
    4.5981   -0.9400    0.0000 C   0  0  0  0  0  0  0  0  0  0  0  0
    2.8660    0.0600    0.0000 C   0  0  0  0  0  0  0  0  0  0  0  0
    5.4641   -1.4400    0.0000 C   0  0  0  0  0  0  0  0  0  0  0  0
    5.4641   -2.4400    0.0000 C   0  0  0  0  0  0  0  0  0  0  0  0
    6.3301   -0.9400    0.0000 C   0  0  0  0  0  0  0  0  0  0  0  0
    7.1962   -1.4400    0.0000 C   0  0  0  0  0  0  0  0  0  0  0  0
    7.1962   -2.4400    0.0000 C   0  0  0  0  0  0  0  0  0  0  0  0
    8.5991    2.3700    0.0000 H   0  0  0  0  0  0  0  0  0  0  0  0
    6.7976    1.0850    0.0000 H   0  0  0  0  0  0  0  0  0  0  0  0
    7.5947    1.0850    0.0000 H   0  0  0  0  0  0  0  0  0  0  0  0
    8.5297    1.0850    0.0000 H   0  0  0  0  0  0  0  0  0  0  0  0
    9.3267    1.0850    0.0000 H   0  0  0  0  0  0  0  0  0  0  0  0
    8.5991    3.3700    0.0000 H   0  0  0  0  0  0  0  0  0  0  0  0
    6.1181    3.6426    0.0000 H   0  0  0  0  0  0  0  0  0  0  0  0
    5.7196    2.9523    0.0000 H   0  0  0  0  0  0  0  0  0  0  0  0
    9.2573    2.3700    0.0000 H   0  0  0  0  0  0  0  0  0  0  0  0
    7.5947    4.0350    0.0000 H   0  0  0  0  0  0  0  0  0  0  0  0
    6.7976    4.0350    0.0000 H   0  0  0  0  0  0  0  0  0  0  0  0
   10.3503    1.0231    0.0000 H   0  0  0  0  0  0  0  0  0  0  0  0
   11.1972    1.2500    0.0000 H   0  0  0  0  0  0  0  0  0  0  0  0
   10.9703    2.0969    0.0000 H   0  0  0  0  0  0  0  0  0  0  0  0
   10.4142    3.0600    0.0000 H   0  0  0  0  0  0  0  0  0  0  0  0
    9.7942    3.6800    0.0000 H   0  0  0  0  0  0  0  0  0  0  0  0
    9.1742    3.0600    0.0000 H   0  0  0  0  0  0  0  0  0  0  0  0
    4.5981    2.6800    0.0000 H   0  0  0  0  0  0  0  0  0  0  0  0
    3.1951    1.8700    0.0000 H   0  0  0  0  0  0  0  0  0  0  0  0
    6.3301   -0.3200    0.0000 H   0  0  0  0  0  0  0  0  0  0  0  0
    7.7331   -1.1300    0.0000 H   0  0  0  0  0  0  0  0  0  0  0  0
    7.7331   -2.7500    0.0000 H   0  0  0  0  0  0  0  0  0  0  0  0
    4.5981   -3.5600    0.0000 H   0  0  0  0  0  0  0  0  0  0  0  0
    4.0611   -2.6300    0.0000 H   0  0  0  0  0  0  0  0  0  0  0  0
  1 24  1  0  0  0  0
  2 24  1  0  0  0  0
  3 24  1  0  0  0  0
  4 23  2  0  0  0  0
  5 11  1  0  0  0  0
  5 13  1  0  0  0  0
  5 16  1  0  0  0  0
  6 10  1  0  0  0  0
  6 15  1  0  0  0  0
  6 35  1  0  0  0  0
  7 16  2  0  0  0  0
  7 20  1  0  0  0  0
  8 26  1  0  0  0  0
  8 29  2  0  0  0  0
  9 26  1  0  0  0  0
  9 52  1  0  0  0  0
  9 53  1  0  0  0  0
 10 11  1  0  0  0  0
 10 12  1  1  0  0  0
 10 30  1  0  0  0  0
 11 31  1  0  0  0  0
 11 32  1  0  0  0  0
 12 14  1  0  0  0  0
 12 33  1  0  0  0  0
 12 34  1  0  0  0  0
 13 15  1  0  0  0  0
 13 36  1  0  0  0  0
 13 37  1  0  0  0  0
 14 17  1  0  0  0  0
 14 18  1  0  0  0  0
 14 38  1  0  0  0  0
 15 39  1  0  0  0  0
 15 40  1  0  0  0  0
 16 19  1  0  0  0  0
 17 41  1  0  0  0  0
 17 42  1  0  0  0  0
 17 43  1  0  0  0  0
 18 44  1  0  0  0  0
 18 45  1  0  0  0  0
 18 46  1  0  0  0  0
 19 21  2  0  0  0  0
 19 47  1  0  0  0  0
 20 22  2  0  0  0  0
 20 23  1  0  0  0  0
 21 22  1  0  0  0  0
 21 48  1  0  0  0  0
 22 24  1  0  0  0  0
 23 25  1  0  0  0  0
 25 26  2  0  0  0  0
 25 27  1  0  0  0  0
 27 28  2  0  0  0  0
 27 49  1  0  0  0  0
 28 29  1  0  0  0  0
 28 50  1  0  0  0  0
 29 51  1  0  0  0  0
M  END
> <PUBCHEM_COMPOUND_CID>
24995659

> <PUBCHEM_COMPOUND_CANONICALIZED>
1

> <PUBCHEM_CACTVS_COMPLEXITY>
559

> <PUBCHEM_CACTVS_HBOND_ACCEPTOR>
9

> <PUBCHEM_CACTVS_HBOND_DONOR>
2

> <PUBCHEM_CACTVS_ROTATABLE_BOND>
5

> <PUBCHEM_CACTVS_SUBSKEYS>
AAADceB7oYAAAAAAAAAAAAAAAAAAAAAAAAAsWLAAAAAAAAAB4AAAHwAQAAAADSzBnhQ/sJPIEACoA7Z3ZACCgCk3AiAJ2KG4ZNiIYPrAnbGUIYhokALIyecYicAOAAAAAAAAAAAAAAAAAAAAAAAAAAAAAA==

> <PUBCHEM_IUPAC_OPENEYE_NAME>
(2-amino-3-pyridyl)-[6-[(3S)-3-isobutylpiperazin-1-yl]-3-(trifluoromethyl)-2-pyridyl]methanone

> <PUBCHEM_IUPAC_CAS_NAME>
(2-amino-3-pyridinyl)-[6-[(3S)-3-(2-methylpropyl)-1-piperazinyl]-3-(trifluoromethyl)-2-pyridinyl]methanone

> <PUBCHEM_IUPAC_NAME_MARKUP>
(2-aminopyridin-3-yl)-[6-[(3<I>S</I>)-3-(2-methylpropyl)piperazin-1-yl]-3-(trifluoromethyl)pyridin-2-yl]methanone

> <PUBCHEM_IUPAC_NAME>
(2-aminopyridin-3-yl)-[6-[(3S)-3-(2-methylpropyl)piperazin-1-yl]-3-(trifluoromethyl)pyridin-2-yl]methanone

> <PUBCHEM_IUPAC_SYSTEMATIC_NAME>
(2-azanylpyridin-3-yl)-[6-[(3S)-3-(2-methylpropyl)piperazin-1-yl]-3-(trifluoromethyl)pyridin-2-yl]methanone

> <PUBCHEM_IUPAC_TRADITIONAL_NAME>
(2-amino-3-pyridyl)-[6-[(3S)-3-isobutylpiperazino]-3-(trifluoromethyl)-2-pyridyl]methanone

> <PUBCHEM_IUPAC_INCHI>
InChI=1S/C20H24F3N5O/c1-12(2)10-13-11-28(9-8-25-13)16-6-5-15(20(21,22)23)17(27-16)18(29)14-4-3-7-26-19(14)24/h3-7,12-13,25H,8-11H2,1-2H3,(H2,24,26)/t13-/m0/s1

> <PUBCHEM_IUPAC_INCHIKEY>
XWKJUHBICAMYNW-ZDUSSCGKSA-N

> <PUBCHEM_XLOGP3_AA>
4.1

> <PUBCHEM_EXACT_MASS>
407.19329489

> <PUBCHEM_MOLECULAR_FORMULA>
C20H24F3N5O

> <PUBCHEM_MOLECULAR_WEIGHT>
407.4

> <PUBCHEM_SMILES>
CC(C)C[C@H]1CN(CCN1)C2=NC(=C(C=C2)C(F)(F)F)C(=O)C3=C(N=CC=C3)N

> <PUBCHEM_OPENEYE_CAN_SMILES>
CC(C)CC1CN(CCN1)C2=NC(=C(C=C2)C(F)(F)F)C(=O)C3=C(N=CC=C3)N

> <PUBCHEM_OPENEYE_ISO_SMILES>
CC(C)C[C@H]1CN(CCN1)C2=NC(=C(C=C2)C(F)(F)F)C(=O)C3=C(N=CC=C3)N

> <PUBCHEM_CACTVS_TPSA>
84.1

> <PUBCHEM_MONOISOTOPIC_WEIGHT>
407.19329489

> <PUBCHEM_TOTAL_CHARGE>
0

> <PUBCHEM_HEAVY_ATOM_COUNT>
29

> <PUBCHEM_ATOM_DEF_STEREO_COUNT>
1

> <PUBCHEM_ATOM_UDEF_STEREO_COUNT>
0

> <PUBCHEM_BOND_DEF_STEREO_COUNT>
0

> <PUBCHEM_BOND_UDEF_STEREO_COUNT>
0

> <PUBCHEM_ISOTOPIC_ATOM_COUNT>
0

> <PUBCHEM_COMPONENT_COUNT>
1

> <PUBCHEM_CACTVS_TAUTO_COUNT>
-1

> <PUBCHEM_COORDINATE_TYPE>
1
5
255

> <PUBCHEM_BONDANNOTATIONS>
10  12  5
16  19  8
19  21  8
20  22  8
21  22  8
25  26  8
25  27  8
27  28  8
28  29  8
7  16  8
7  20  8
8  26  8
8  29  8

$$$$
