23647265
  -OEChem-03202506062D

 40 43  0     0  0  0  0  0  0999 V2000
    2.0000    1.6370    0.0000 O   0  0  0  0  0  0  0  0  0  0  0  0
    3.7320    1.6370    0.0000 O   0  0  0  0  0  0  0  0  0  0  0  0
    8.0622    0.1370    0.0000 N   0  0  0  0  0  0  0  0  0  0  0  0
   11.6065   -1.6677    0.0000 N   0  0  0  0  0  0  0  0  0  0  0  0
    4.5981    0.1370    0.0000 N   0  0  0  0  0  0  0  0  0  0  0  0
   12.1901   -0.8630    0.0000 N   0  0  0  0  0  0  0  0  0  0  0  0
    6.3301    0.1370    0.0000 N   0  0  0  0  0  0  0  0  0  0  0  0
    7.1962   -1.3630    0.0000 N   0  0  0  0  0  0  0  0  0  0  0  0
   10.6603   -0.3630    0.0000 C   0  0  0  0  0  0  0  0  0  0  0  0
   10.6603   -1.3630    0.0000 C   0  0  0  0  0  0  0  0  0  0  0  0
    8.9282   -0.3630    0.0000 C   0  0  0  0  0  0  0  0  0  0  0  0
    9.7942    0.1370    0.0000 C   0  0  0  0  0  0  0  0  0  0  0  0
    9.7942   -1.8630    0.0000 C   0  0  0  0  0  0  0  0  0  0  0  0
    8.9282   -1.3630    0.0000 C   0  0  0  0  0  0  0  0  0  0  0  0
   11.6065   -0.0582    0.0000 C   0  0  0  0  0  0  0  0  0  0  0  0
    3.7320   -0.3630    0.0000 C   0  0  0  0  0  0  0  0  0  0  0  0
    7.1962   -0.3630    0.0000 C   0  0  0  0  0  0  0  0  0  0  0  0
    5.4641   -0.3630    0.0000 C   0  0  0  0  0  0  0  0  0  0  0  0
    2.8660    0.1370    0.0000 C   0  0  0  0  0  0  0  0  0  0  0  0
    3.7320   -1.3630    0.0000 C   0  0  0  0  0  0  0  0  0  0  0  0
    2.0000   -0.3630    0.0000 C   0  0  0  0  0  0  0  0  0  0  0  0
    5.4641   -1.3630    0.0000 C   0  0  0  0  0  0  0  0  0  0  0  0
    2.8660   -1.8630    0.0000 C   0  0  0  0  0  0  0  0  0  0  0  0
    2.0000   -1.3630    0.0000 C   0  0  0  0  0  0  0  0  0  0  0  0
    6.3301   -1.8630    0.0000 C   0  0  0  0  0  0  0  0  0  0  0  0
    2.8660    1.1370    0.0000 C   0  0  0  0  0  0  0  0  0  0  0  0
    9.7942    0.7570    0.0000 H   0  0  0  0  0  0  0  0  0  0  0  0
    9.7942   -2.4830    0.0000 H   0  0  0  0  0  0  0  0  0  0  0  0
    8.3913   -1.6730    0.0000 H   0  0  0  0  0  0  0  0  0  0  0  0
    8.0622    0.7570    0.0000 H   0  0  0  0  0  0  0  0  0  0  0  0
   11.7991    0.5311    0.0000 H   0  0  0  0  0  0  0  0  0  0  0  0
   11.7991   -2.2570    0.0000 H   0  0  0  0  0  0  0  0  0  0  0  0
    4.5981    0.7570    0.0000 H   0  0  0  0  0  0  0  0  0  0  0  0
    4.2690   -1.6730    0.0000 H   0  0  0  0  0  0  0  0  0  0  0  0
    1.4631   -0.0530    0.0000 H   0  0  0  0  0  0  0  0  0  0  0  0
    4.9272   -1.6730    0.0000 H   0  0  0  0  0  0  0  0  0  0  0  0
    2.8660   -2.4830    0.0000 H   0  0  0  0  0  0  0  0  0  0  0  0
    1.4631   -1.6730    0.0000 H   0  0  0  0  0  0  0  0  0  0  0  0
    6.3301   -2.4830    0.0000 H   0  0  0  0  0  0  0  0  0  0  0  0
    2.0000    2.2570    0.0000 H   0  0  0  0  0  0  0  0  0  0  0  0
  1 26  1  0  0  0  0
  1 40  1  0  0  0  0
  2 26  2  0  0  0  0
  3 11  1  0  0  0  0
  3 17  1  0  0  0  0
  3 30  1  0  0  0  0
  4  6  1  0  0  0  0
  4 10  1  0  0  0  0
  4 32  1  0  0  0  0
  5 16  1  0  0  0  0
  5 18  1  0  0  0  0
  5 33  1  0  0  0  0
  6 15  2  0  0  0  0
  7 17  1  0  0  0  0
  7 18  2  0  0  0  0
  8 17  2  0  0  0  0
  8 25  1  0  0  0  0
  9 10  2  0  0  0  0
  9 12  1  0  0  0  0
  9 15  1  0  0  0  0
 10 13  1  0  0  0  0
 11 12  2  0  0  0  0
 11 14  1  0  0  0  0
 12 27  1  0  0  0  0
 13 14  2  0  0  0  0
 13 28  1  0  0  0  0
 14 29  1  0  0  0  0
 15 31  1  0  0  0  0
 16 19  1  0  0  0  0
 16 20  2  0  0  0  0
 18 22  1  0  0  0  0
 19 21  2  0  0  0  0
 19 26  1  0  0  0  0
 20 23  1  0  0  0  0
 20 34  1  0  0  0  0
 21 24  1  0  0  0  0
 21 35  1  0  0  0  0
 22 25  2  0  0  0  0
 22 36  1  0  0  0  0
 23 24  2  0  0  0  0
 23 37  1  0  0  0  0
 24 38  1  0  0  0  0
 25 39  1  0  0  0  0
M  END
> <PUBCHEM_COMPOUND_CID>
23647265

> <PUBCHEM_COMPOUND_CANONICALIZED>
1

> <PUBCHEM_CACTVS_COMPLEXITY>
492

> <PUBCHEM_CACTVS_HBOND_ACCEPTOR>
7

> <PUBCHEM_CACTVS_HBOND_DONOR>
4

> <PUBCHEM_CACTVS_ROTATABLE_BOND>
5

> <PUBCHEM_CACTVS_SUBSKEYS>
AAADccB7sAAAAAAAAAAAAAAAAAAAAWAAAAA8YIAAAAAAAFgB/AAAHgAYCAAADAjBngQ9+PbrEgCqAzb3bACShCk1gqAZ+SE4bNiILvrA3dGE9Yhu2API2eeYyCCOAACAQAACAAAAAQCAAAQAAAAAAAAAAA==

> <PUBCHEM_IUPAC_OPENEYE_NAME>
2-[[2-(1H-indazol-5-ylamino)pyrimidin-4-yl]amino]benzoic acid

> <PUBCHEM_IUPAC_CAS_NAME>
2-[[2-(1H-indazol-5-ylamino)-4-pyrimidinyl]amino]benzoic acid

> <PUBCHEM_IUPAC_NAME_MARKUP>
2-[[2-(1<I>H</I>-indazol-5-ylamino)pyrimidin-4-yl]amino]benzoic acid

> <PUBCHEM_IUPAC_NAME>
2-[[2-(1H-indazol-5-ylamino)pyrimidin-4-yl]amino]benzoic acid

> <PUBCHEM_IUPAC_SYSTEMATIC_NAME>
2-[[2-(1H-indazol-5-ylamino)pyrimidin-4-yl]amino]benzoic acid

> <PUBCHEM_IUPAC_TRADITIONAL_NAME>
2-[[2-(1H-indazol-5-ylamino)pyrimidin-4-yl]amino]benzoic acid

> <PUBCHEM_IUPAC_INCHI>
InChI=1S/C18H14N6O2/c25-17(26)13-3-1-2-4-15(13)22-16-7-8-19-18(23-16)21-12-5-6-14-11(9-12)10-20-24-14/h1-10H,(H,20,24)(H,25,26)(H2,19,21,22,23)

> <PUBCHEM_IUPAC_INCHIKEY>
GCBJDOWIQHMCMR-UHFFFAOYSA-N

> <PUBCHEM_XLOGP3_AA>
3.7

> <PUBCHEM_EXACT_MASS>
346.11782371

> <PUBCHEM_MOLECULAR_FORMULA>
C18H14N6O2

> <PUBCHEM_MOLECULAR_WEIGHT>
346.3

> <PUBCHEM_SMILES>
C1=CC=C(C(=C1)C(=O)O)NC2=NC(=NC=C2)NC3=CC4=C(C=C3)NN=C4

> <PUBCHEM_OPENEYE_CAN_SMILES>
C1=CC=C(C(=C1)C(=O)O)NC2=NC(=NC=C2)NC3=CC4=C(C=C3)NN=C4

> <PUBCHEM_OPENEYE_ISO_SMILES>
C1=CC=C(C(=C1)C(=O)O)NC2=NC(=NC=C2)NC3=CC4=C(C=C3)NN=C4

> <PUBCHEM_CACTVS_TPSA>
116

> <PUBCHEM_MONOISOTOPIC_WEIGHT>
346.11782371

> <PUBCHEM_TOTAL_CHARGE>
0

> <PUBCHEM_HEAVY_ATOM_COUNT>
26

> <PUBCHEM_ATOM_DEF_STEREO_COUNT>
0

> <PUBCHEM_ATOM_UDEF_STEREO_COUNT>
0

> <PUBCHEM_BOND_DEF_STEREO_COUNT>
0

> <PUBCHEM_BOND_UDEF_STEREO_COUNT>
0

> <PUBCHEM_ISOTOPIC_ATOM_COUNT>
0

> <PUBCHEM_COMPONENT_COUNT>
1

> <PUBCHEM_CACTVS_TAUTO_COUNT>
-1

> <PUBCHEM_COORDINATE_TYPE>
1
5
255

> <PUBCHEM_BONDANNOTATIONS>
10  13  8
11  12  8
11  14  8
13  14  8
16  19  8
16  20  8
18  22  8
19  21  8
20  23  8
21  24  8
22  25  8
23  24  8
4  10  8
4  6  8
6  15  8
7  17  8
7  18  8
8  17  8
8  25  8
9  10  8
9  12  8
9  15  8

$$$$
