17754396
  -OEChem-03202504592D

 43 46  0     0  0  0  0  0  0999 V2000
    4.2118   -2.3042    0.0000 O   0  0  0  0  0  0  0  0  0  0  0  0
    6.0151   -3.3640    0.0000 O   0  0  0  0  0  0  0  0  0  0  0  0
    6.0682    2.8327    0.0000 N   0  0  0  0  0  0  0  0  0  0  0  0
    7.8523   -0.2157    0.0000 N   0  0  0  0  0  0  0  0  0  0  0  0
    7.8003    2.8327    0.0000 N   0  0  0  0  0  0  0  0  0  0  0  0
    2.5381    2.8569    0.0000 N   0  0  0  0  0  0  0  0  0  0  0  0
    6.0682    0.8327    0.0000 C   0  0  0  0  0  0  0  0  0  0  0  0
    5.2022    1.3327    0.0000 C   0  0  0  0  0  0  0  0  0  0  0  0
    6.0522   -0.2088    0.0000 C   0  0  0  0  0  0  0  0  0  0  0  0
    6.9343    1.3327    0.0000 C   0  0  0  0  0  0  0  0  0  0  0  0
    5.2022    2.3327    0.0000 C   0  0  0  0  0  0  0  0  0  0  0  0
    6.9502   -0.7365    0.0000 C   0  0  0  0  0  0  0  0  0  0  0  0
    4.3083    2.8674    0.0000 C   0  0  0  0  0  0  0  0  0  0  0  0
    6.9343    2.3327    0.0000 C   0  0  0  0  0  0  0  0  0  0  0  0
    4.3083    0.7981    0.0000 C   0  0  0  0  0  0  0  0  0  0  0  0
    5.1003   -0.7294    0.0000 C   0  0  0  0  0  0  0  0  0  0  0  0
    7.8443    0.8259    0.0000 C   0  0  0  0  0  0  0  0  0  0  0  0
    3.4022    2.3535    0.0000 C   0  0  0  0  0  0  0  0  0  0  0  0
    3.4022    1.3119    0.0000 C   0  0  0  0  0  0  0  0  0  0  0  0
    6.9586   -1.8215    0.0000 C   0  0  0  0  0  0  0  0  0  0  0  0
    5.0835   -1.8143    0.0000 C   0  0  0  0  0  0  0  0  0  0  0  0
    6.0190   -2.3640    0.0000 C   0  0  0  0  0  0  0  0  0  0  0  0
    4.3198    3.8673    0.0000 C   0  0  0  0  0  0  0  0  0  0  0  0
    4.2002   -3.3042    0.0000 C   0  0  0  0  0  0  0  0  0  0  0  0
    6.8792   -3.8673    0.0000 C   0  0  0  0  0  0  0  0  0  0  0  0
    4.3154    0.1781    0.0000 H   0  0  0  0  0  0  0  0  0  0  0  0
    4.5694   -0.4091    0.0000 H   0  0  0  0  0  0  0  0  0  0  0  0
    8.3776    1.1421    0.0000 H   0  0  0  0  0  0  0  0  0  0  0  0
    2.8665    0.9998    0.0000 H   0  0  0  0  0  0  0  0  0  0  0  0
    7.4967   -2.1294    0.0000 H   0  0  0  0  0  0  0  0  0  0  0  0
    4.9398    3.8602    0.0000 H   0  0  0  0  0  0  0  0  0  0  0  0
    4.3270    4.4873    0.0000 H   0  0  0  0  0  0  0  0  0  0  0  0
    3.6999    3.8745    0.0000 H   0  0  0  0  0  0  0  0  0  0  0  0
    7.8003    3.4527    0.0000 H   0  0  0  0  0  0  0  0  0  0  0  0
    8.3372    2.5227    0.0000 H   0  0  0  0  0  0  0  0  0  0  0  0
    2.0000    2.5490    0.0000 H   0  0  0  0  0  0  0  0  0  0  0  0
    2.5405    3.4769    0.0000 H   0  0  0  0  0  0  0  0  0  0  0  0
    3.5803   -3.2970    0.0000 H   0  0  0  0  0  0  0  0  0  0  0  0
    4.1931   -3.9241    0.0000 H   0  0  0  0  0  0  0  0  0  0  0  0
    4.8202   -3.3113    0.0000 H   0  0  0  0  0  0  0  0  0  0  0  0
    6.5671   -4.4031    0.0000 H   0  0  0  0  0  0  0  0  0  0  0  0
    7.4149   -4.1794    0.0000 H   0  0  0  0  0  0  0  0  0  0  0  0
    7.1913   -3.3316    0.0000 H   0  0  0  0  0  0  0  0  0  0  0  0
  1 21  1  0  0  0  0
  1 24  1  0  0  0  0
  2 22  1  0  0  0  0
  2 25  1  0  0  0  0
  3 11  2  0  0  0  0
  3 14  1  0  0  0  0
  4 12  1  0  0  0  0
  4 17  2  0  0  0  0
  5 14  1  0  0  0  0
  5 34  1  0  0  0  0
  5 35  1  0  0  0  0
  6 18  1  0  0  0  0
  6 36  1  0  0  0  0
  6 37  1  0  0  0  0
  7  8  2  0  0  0  0
  7  9  1  0  0  0  0
  7 10  1  0  0  0  0
  8 11  1  0  0  0  0
  8 15  1  0  0  0  0
  9 12  1  0  0  0  0
  9 16  2  0  0  0  0
 10 14  2  0  0  0  0
 10 17  1  0  0  0  0
 11 13  1  0  0  0  0
 12 20  2  0  0  0  0
 13 18  2  0  0  0  0
 13 23  1  0  0  0  0
 15 19  2  0  0  0  0
 15 26  1  0  0  0  0
 16 21  1  0  0  0  0
 16 27  1  0  0  0  0
 17 28  1  0  0  0  0
 18 19  1  0  0  0  0
 19 29  1  0  0  0  0
 20 22  1  0  0  0  0
 20 30  1  0  0  0  0
 21 22  2  0  0  0  0
 23 31  1  0  0  0  0
 23 32  1  0  0  0  0
 23 33  1  0  0  0  0
 24 38  1  0  0  0  0
 24 39  1  0  0  0  0
 24 40  1  0  0  0  0
 25 41  1  0  0  0  0
 25 42  1  0  0  0  0
 25 43  1  0  0  0  0
M  END
> <PUBCHEM_COMPOUND_CID>
17754396

> <PUBCHEM_COMPOUND_CANONICALIZED>
1

> <PUBCHEM_CACTVS_COMPLEXITY>
478

> <PUBCHEM_CACTVS_HBOND_ACCEPTOR>
6

> <PUBCHEM_CACTVS_HBOND_DONOR>
2

> <PUBCHEM_CACTVS_ROTATABLE_BOND>
2

> <PUBCHEM_CACTVS_SUBSKEYS>
AAADceB7sAAAAAAAAAAAAAAAAAAAAAAAAAA8eIEAAAAAAACx/gAAHgAQAAAADAzBngY/9vJIFACgAzZnZACCiCkxIiAI2CA+7JiNJuLE8NuENCpm0BvK6Cew0PMOqEADAgQCQABQgAYECASAAAAAAAAAAA==

> <PUBCHEM_IUPAC_OPENEYE_NAME>
2,3-dimethoxy-9-methyl-quinolino[3,4-c]quinoline-7,10-diamine

> <PUBCHEM_IUPAC_CAS_NAME>
2,3-dimethoxy-9-methylquinolino[3,4-c]quinoline-7,10-diamine

> <PUBCHEM_IUPAC_NAME_MARKUP>
2,3-dimethoxy-9-methylquinolino[3,4-c]quinoline-7,10-diamine

> <PUBCHEM_IUPAC_NAME>
2,3-dimethoxy-9-methylquinolino[3,4-c]quinoline-7,10-diamine

> <PUBCHEM_IUPAC_SYSTEMATIC_NAME>
2,3-dimethoxy-9-methyl-quinolino[3,4-c]quinoline-7,10-diamine

> <PUBCHEM_IUPAC_TRADITIONAL_NAME>
(7-amino-2,3-dimethoxy-9-methyl-quinolino[3,4-c]quinolin-10-yl)amine

> <PUBCHEM_IUPAC_INCHI>
InChI=1S/C19H18N4O2/c1-9-13(20)5-4-10-17-11-6-15(24-2)16(25-3)7-14(11)22-8-12(17)19(21)23-18(9)10/h4-8H,20H2,1-3H3,(H2,21,23)

> <PUBCHEM_IUPAC_INCHIKEY>
NVINUNQBDNEMSY-UHFFFAOYSA-N

> <PUBCHEM_XLOGP3_AA>
3

> <PUBCHEM_EXACT_MASS>
334.14297583

> <PUBCHEM_MOLECULAR_FORMULA>
C19H18N4O2

> <PUBCHEM_MOLECULAR_WEIGHT>
334.4

> <PUBCHEM_SMILES>
CC1=C(C=CC2=C3C4=CC(=C(C=C4N=CC3=C(N=C12)N)OC)OC)N

> <PUBCHEM_OPENEYE_CAN_SMILES>
CC1=C(C=CC2=C3C4=CC(=C(C=C4N=CC3=C(N=C12)N)OC)OC)N

> <PUBCHEM_OPENEYE_ISO_SMILES>
CC1=C(C=CC2=C3C4=CC(=C(C=C4N=CC3=C(N=C12)N)OC)OC)N

> <PUBCHEM_CACTVS_TPSA>
96.3

> <PUBCHEM_MONOISOTOPIC_WEIGHT>
334.14297583

> <PUBCHEM_TOTAL_CHARGE>
0

> <PUBCHEM_HEAVY_ATOM_COUNT>
25

> <PUBCHEM_ATOM_DEF_STEREO_COUNT>
0

> <PUBCHEM_ATOM_UDEF_STEREO_COUNT>
0

> <PUBCHEM_BOND_DEF_STEREO_COUNT>
0

> <PUBCHEM_BOND_UDEF_STEREO_COUNT>
0

> <PUBCHEM_ISOTOPIC_ATOM_COUNT>
0

> <PUBCHEM_COMPONENT_COUNT>
1

> <PUBCHEM_CACTVS_TAUTO_COUNT>
-1

> <PUBCHEM_COORDINATE_TYPE>
1
5
255

> <PUBCHEM_BONDANNOTATIONS>
10  14  8
10  17  8
11  13  8
12  20  8
13  18  8
15  19  8
16  21  8
18  19  8
20  22  8
21  22  8
3  11  8
3  14  8
4  12  8
4  17  8
7  10  8
7  8  8
7  9  8
8  11  8
8  15  8
9  12  8
9  16  8

$$$$
