10940039
  -OEChem-03202505192D

 66 72  0     1  0  0  0  0  0999 V2000
    3.4026    3.9019    0.0000 O   0  0  0  0  0  0  0  0  0  0  0  0
    6.7523    4.9839    0.0000 O   0  0  0  0  0  0  0  0  0  0  0  0
    5.9422   -1.7277    0.0000 N   0  0  3  0  0  0  0  0  0  0  0  0
    4.6783    0.5302    0.0000 N   0  0  0  0  0  0  0  0  0  0  0  0
    4.9917    4.7082    0.0000 N   0  0  0  0  0  0  0  0  0  0  0  0
    7.6900    1.5030    0.0000 N   0  0  0  0  0  0  0  0  0  0  0  0
    4.9889   -0.4203    0.0000 C   0  0  3  0  0  0  0  0  0  0  0  0
    4.4026   -1.2304    0.0000 C   0  0  0  0  0  0  0  0  0  0  0  0
    5.9405   -0.7277    0.0000 C   0  0  0  0  0  0  0  0  0  0  0  0
    4.9917   -2.0384    0.0000 C   0  0  0  0  0  0  0  0  0  0  0  0
    6.7523   -2.3141    0.0000 C   0  0  0  0  0  0  0  0  0  0  0  0
    3.7320    0.8349    0.0000 C   0  0  0  0  0  0  0  0  0  0  0  0
    5.2619    1.3349    0.0000 C   0  0  0  0  0  0  0  0  0  0  0  0
    4.6783    2.1396    0.0000 C   0  0  0  0  0  0  0  0  0  0  0  0
    3.7320    1.8349    0.0000 C   0  0  0  0  0  0  0  0  0  0  0  0
    4.9889    3.0902    0.0000 C   0  0  0  0  0  0  0  0  0  0  0  0
    6.6495   -3.3088    0.0000 C   0  0  0  0  0  0  0  0  0  0  0  0
    2.8660    0.3349    0.0000 C   0  0  0  0  0  0  0  0  0  0  0  0
    2.8660    2.3349    0.0000 C   0  0  0  0  0  0  0  0  0  0  0  0
    5.9405    3.3975    0.0000 C   0  0  0  0  0  0  0  0  0  0  0  0
    2.0000    0.8349    0.0000 C   0  0  0  0  0  0  0  0  0  0  0  0
    4.4026    3.9002    0.0000 C   0  0  0  0  0  0  0  0  0  0  0  0
    2.0000    1.8349    0.0000 C   0  0  0  0  0  0  0  0  0  0  0  0
    6.7485    2.8084    0.0000 C   0  0  0  0  0  0  0  0  0  0  0  0
    5.7366   -3.7171    0.0000 C   0  0  0  0  0  0  0  0  0  0  0  0
    7.4595   -3.8952    0.0000 C   0  0  0  0  0  0  0  0  0  0  0  0
    5.9422    4.3975    0.0000 C   0  0  0  0  0  0  0  0  0  0  0  0
    7.6942    3.1147    0.0000 C   0  0  0  0  0  0  0  0  0  0  0  0
    6.7459    1.8143    0.0000 C   0  0  0  0  0  0  0  0  0  0  0  0
    8.2792    2.3037    0.0000 C   0  0  0  0  0  0  0  0  0  0  0  0
    5.6338   -4.7118    0.0000 C   0  0  0  0  0  0  0  0  0  0  0  0
    7.3567   -4.8899    0.0000 C   0  0  0  0  0  0  0  0  0  0  0  0
    8.1041    4.0269    0.0000 C   0  0  0  0  0  0  0  0  0  0  0  0
    6.4439   -5.2982    0.0000 C   0  0  0  0  0  0  0  0  0  0  0  0
    9.2741    2.4048    0.0000 C   0  0  0  0  0  0  0  0  0  0  0  0
    7.9941    0.5504    0.0000 C   0  0  0  0  0  0  0  0  0  0  0  0
    9.0990    4.1280    0.0000 C   0  0  0  0  0  0  0  0  0  0  0  0
    9.6840    3.3169    0.0000 C   0  0  0  0  0  0  0  0  0  0  0  0
    5.4266    0.0188    0.0000 H   0  0  0  0  0  0  0  0  0  0  0  0
    3.9411   -0.8163    0.0000 H   0  0  0  0  0  0  0  0  0  0  0  0
    3.9425   -1.6460    0.0000 H   0  0  0  0  0  0  0  0  0  0  0  0
    6.5572   -0.7914    0.0000 H   0  0  0  0  0  0  0  0  0  0  0  0
    6.0684   -0.1210    0.0000 H   0  0  0  0  0  0  0  0  0  0  0  0
    4.4553   -2.3493    0.0000 H   0  0  0  0  0  0  0  0  0  0  0  0
    5.2449   -2.6043    0.0000 H   0  0  0  0  0  0  0  0  0  0  0  0
    7.3486   -2.4840    0.0000 H   0  0  0  0  0  0  0  0  0  0  0  0
    7.0231   -1.7564    0.0000 H   0  0  0  0  0  0  0  0  0  0  0  0
    5.8819    1.3349    0.0000 H   0  0  0  0  0  0  0  0  0  0  0  0
    2.8660   -0.2851    0.0000 H   0  0  0  0  0  0  0  0  0  0  0  0
    2.8660    2.9549    0.0000 H   0  0  0  0  0  0  0  0  0  0  0  0
    1.4631    0.5249    0.0000 H   0  0  0  0  0  0  0  0  0  0  0  0
    1.4631    2.1449    0.0000 H   0  0  0  0  0  0  0  0  0  0  0  0
    5.2344   -3.3536    0.0000 H   0  0  0  0  0  0  0  0  0  0  0  0
    8.0255   -3.6420    0.0000 H   0  0  0  0  0  0  0  0  0  0  0  0
    4.8012    5.2982    0.0000 H   0  0  0  0  0  0  0  0  0  0  0  0
    6.2431    1.4516    0.0000 H   0  0  0  0  0  0  0  0  0  0  0  0
    5.0679   -4.9650    0.0000 H   0  0  0  0  0  0  0  0  0  0  0  0
    7.8589   -5.2534    0.0000 H   0  0  0  0  0  0  0  0  0  0  0  0
    7.7414    4.5297    0.0000 H   0  0  0  0  0  0  0  0  0  0  0  0
    6.3801   -5.9149    0.0000 H   0  0  0  0  0  0  0  0  0  0  0  0
    9.6368    1.9019    0.0000 H   0  0  0  0  0  0  0  0  0  0  0  0
    7.4035    0.3618    0.0000 H   0  0  0  0  0  0  0  0  0  0  0  0
    8.1826   -0.0403    0.0000 H   0  0  0  0  0  0  0  0  0  0  0  0
    8.5848    0.7389    0.0000 H   0  0  0  0  0  0  0  0  0  0  0  0
    9.3531    4.6935    0.0000 H   0  0  0  0  0  0  0  0  0  0  0  0
   10.3008    3.3796    0.0000 H   0  0  0  0  0  0  0  0  0  0  0  0
  1 22  2  0  0  0  0
  2 27  2  0  0  0  0
  3  9  1  0  0  0  0
  3 10  1  0  0  0  0
  3 11  1  0  0  0  0
  4  7  1  0  0  0  0
  4 12  1  0  0  0  0
  4 13  1  0  0  0  0
  5 22  1  0  0  0  0
  5 27  1  0  0  0  0
  5 55  1  0  0  0  0
  6 29  1  0  0  0  0
  6 30  1  0  0  0  0
  6 36  1  0  0  0  0
  7  8  1  0  0  0  0
  7  9  1  0  0  0  0
  7 39  1  0  0  0  0
  8 10  1  0  0  0  0
  8 40  1  0  0  0  0
  8 41  1  0  0  0  0
  9 42  1  0  0  0  0
  9 43  1  0  0  0  0
 10 44  1  0  0  0  0
 10 45  1  0  0  0  0
 11 17  1  0  0  0  0
 11 46  1  0  0  0  0
 11 47  1  0  0  0  0
 12 15  1  0  0  0  0
 12 18  2  0  0  0  0
 13 14  2  0  0  0  0
 13 48  1  0  0  0  0
 14 15  1  0  0  0  0
 14 16  1  0  0  0  0
 15 19  2  0  0  0  0
 16 20  2  0  0  0  0
 16 22  1  0  0  0  0
 17 25  2  0  0  0  0
 17 26  1  0  0  0  0
 18 21  1  0  0  0  0
 18 49  1  0  0  0  0
 19 23  1  0  0  0  0
 19 50  1  0  0  0  0
 20 24  1  0  0  0  0
 20 27  1  0  0  0  0
 21 23  2  0  0  0  0
 21 51  1  0  0  0  0
 23 52  1  0  0  0  0
 24 28  1  0  0  0  0
 24 29  2  0  0  0  0
 25 31  1  0  0  0  0
 25 53  1  0  0  0  0
 26 32  2  0  0  0  0
 26 54  1  0  0  0  0
 28 30  1  0  0  0  0
 28 33  2  0  0  0  0
 29 56  1  0  0  0  0
 30 35  2  0  0  0  0
 31 34  2  0  0  0  0
 31 57  1  0  0  0  0
 32 34  1  0  0  0  0
 32 58  1  0  0  0  0
 33 37  1  0  0  0  0
 33 59  1  0  0  0  0
 34 60  1  0  0  0  0
 35 38  1  0  0  0  0
 35 61  1  0  0  0  0
 36 62  1  0  0  0  0
 36 63  1  0  0  0  0
 36 64  1  0  0  0  0
 37 38  2  0  0  0  0
 37 65  1  0  0  0  0
 38 66  1  0  0  0  0
M  END
> <PUBCHEM_COMPOUND_CID>
10940039

> <PUBCHEM_COMPOUND_CANONICALIZED>
1

> <PUBCHEM_CACTVS_COMPLEXITY>
957

> <PUBCHEM_CACTVS_HBOND_ACCEPTOR>
3

> <PUBCHEM_CACTVS_HBOND_DONOR>
1

> <PUBCHEM_CACTVS_ROTATABLE_BOND>
5

> <PUBCHEM_CACTVS_SUBSKEYS>
AAADceB/sAAAAAAAAAAAAAAAAAAAAWLFiAAwYMAAAAAAAFgB/gAAHgAQAAAADCjBngQ+wPPMEACoAzV3VACCgCAxAiAI2CE4ZNgIYPLA1ZGUIAhghCDIyQccicCegAAAAAACAAAAAAAAAAQAAAAAAAAAAA==

> <PUBCHEM_IUPAC_OPENEYE_NAME>
3-[1-(1-benzylpyrrolidin-3-yl)indol-3-yl]-4-(1-methylindol-3-yl)pyrrole-2,5-dione

> <PUBCHEM_IUPAC_CAS_NAME>
3-(1-methyl-3-indolyl)-4-[1-[1-(phenylmethyl)-3-pyrrolidinyl]-3-indolyl]pyrrole-2,5-dione

> <PUBCHEM_IUPAC_NAME_MARKUP>
3-[1-(1-benzylpyrrolidin-3-yl)indol-3-yl]-4-(1-methylindol-3-yl)pyrrole-2,5-dione

> <PUBCHEM_IUPAC_NAME>
3-[1-(1-benzylpyrrolidin-3-yl)indol-3-yl]-4-(1-methylindol-3-yl)pyrrole-2,5-dione

> <PUBCHEM_IUPAC_SYSTEMATIC_NAME>
3-(1-methylindol-3-yl)-4-[1-[1-(phenylmethyl)pyrrolidin-3-yl]indol-3-yl]pyrrole-2,5-dione

> <PUBCHEM_IUPAC_TRADITIONAL_NAME>
3-[1-(1-benzylpyrrolidin-3-yl)indol-3-yl]-4-(1-methylindol-3-yl)-3-pyrroline-2,5-quinone

> <PUBCHEM_IUPAC_INCHI>
InChI=1S/C32H28N4O2/c1-34-19-25(23-11-5-7-13-27(23)34)29-30(32(38)33-31(29)37)26-20-36(28-14-8-6-12-24(26)28)22-15-16-35(18-22)17-21-9-3-2-4-10-21/h2-14,19-20,22H,15-18H2,1H3,(H,33,37,38)

> <PUBCHEM_IUPAC_INCHIKEY>
XHECFEYKUWOZIT-UHFFFAOYSA-N

> <PUBCHEM_XLOGP3_AA>
4.4

> <PUBCHEM_EXACT_MASS>
500.22122615

> <PUBCHEM_MOLECULAR_FORMULA>
C32H28N4O2

> <PUBCHEM_MOLECULAR_WEIGHT>
500.6

> <PUBCHEM_SMILES>
CN1C=C(C2=CC=CC=C21)C3=C(C(=O)NC3=O)C4=CN(C5=CC=CC=C54)C6CCN(C6)CC7=CC=CC=C7

> <PUBCHEM_OPENEYE_CAN_SMILES>
CN1C=C(C2=CC=CC=C21)C3=C(C(=O)NC3=O)C4=CN(C5=CC=CC=C54)C6CCN(C6)CC7=CC=CC=C7

> <PUBCHEM_OPENEYE_ISO_SMILES>
CN1C=C(C2=CC=CC=C21)C3=C(C(=O)NC3=O)C4=CN(C5=CC=CC=C54)C6CCN(C6)CC7=CC=CC=C7

> <PUBCHEM_CACTVS_TPSA>
59.3

> <PUBCHEM_MONOISOTOPIC_WEIGHT>
500.22122615

> <PUBCHEM_TOTAL_CHARGE>
0

> <PUBCHEM_HEAVY_ATOM_COUNT>
38

> <PUBCHEM_ATOM_DEF_STEREO_COUNT>
0

> <PUBCHEM_ATOM_UDEF_STEREO_COUNT>
1

> <PUBCHEM_BOND_DEF_STEREO_COUNT>
0

> <PUBCHEM_BOND_UDEF_STEREO_COUNT>
0

> <PUBCHEM_ISOTOPIC_ATOM_COUNT>
0

> <PUBCHEM_COMPONENT_COUNT>
1

> <PUBCHEM_CACTVS_TAUTO_COUNT>
-1

> <PUBCHEM_COORDINATE_TYPE>
1
5
255

> <PUBCHEM_BONDANNOTATIONS>
12  15  8
12  18  8
13  14  8
14  15  8
15  19  8
17  25  8
17  26  8
18  21  8
19  23  8
21  23  8
24  28  8
24  29  8
25  31  8
26  32  8
28  30  8
28  33  8
30  35  8
31  34  8
32  34  8
33  37  8
35  38  8
37  38  8
4  12  8
4  13  8
7  4  3
6  29  8
6  30  8

$$$$
