49830433
  -OEChem-03202501472D

 36 39  0     0  0  0  0  0  0999 V2000
    5.6258   -1.5696    0.0000 I   0  0  0  0  0  0  0  0  0  0  0  0
    5.1646    0.1517    0.0000 N   0  0  0  0  0  0  0  0  0  0  0  0
   10.2916   -1.9894    0.0000 N   0  0  0  0  0  0  0  0  0  0  0  0
    6.6428    0.8098    0.0000 N   0  0  0  0  0  0  0  0  0  0  0  0
    5.6646    1.0177    0.0000 N   0  0  0  0  0  0  0  0  0  0  0  0
   10.8752   -1.1847    0.0000 N   0  0  0  0  0  0  0  0  0  0  0  0
   10.6022    0.5706    0.0000 N   0  0  0  0  0  0  0  0  0  0  0  0
    7.6133   -0.6847    0.0000 C   0  0  0  0  0  0  0  0  0  0  0  0
    9.3454   -0.6847    0.0000 C   0  0  0  0  0  0  0  0  0  0  0  0
    9.3454   -1.6847    0.0000 C   0  0  0  0  0  0  0  0  0  0  0  0
    6.7473   -0.1847    0.0000 C   0  0  0  0  0  0  0  0  0  0  0  0
    8.4793   -0.1847    0.0000 C   0  0  0  0  0  0  0  0  0  0  0  0
    4.1701    0.0472    0.0000 C   0  0  0  0  0  0  0  0  0  0  0  0
    7.6133   -1.6847    0.0000 C   0  0  0  0  0  0  0  0  0  0  0  0
    5.8338   -0.5914    0.0000 C   0  0  0  0  0  0  0  0  0  0  0  0
    8.4793   -2.1847    0.0000 C   0  0  0  0  0  0  0  0  0  0  0  0
    3.5823    0.8562    0.0000 C   0  0  0  0  0  0  0  0  0  0  0  0
   10.2916   -0.3800    0.0000 C   0  0  0  0  0  0  0  0  0  0  0  0
    2.5878    0.7517    0.0000 C   0  0  0  0  0  0  0  0  0  0  0  0
    3.9890    1.7697    0.0000 C   0  0  0  0  0  0  0  0  0  0  0  0
    2.0000    1.5607    0.0000 C   0  0  0  0  0  0  0  0  0  0  0  0
    3.4013    2.5788    0.0000 C   0  0  0  0  0  0  0  0  0  0  0  0
    2.4067    2.4742    0.0000 C   0  0  0  0  0  0  0  0  0  0  0  0
    8.4793    0.4353    0.0000 H   0  0  0  0  0  0  0  0  0  0  0  0
    3.6128   -0.2246    0.0000 H   0  0  0  0  0  0  0  0  0  0  0  0
    4.3410   -0.5488    0.0000 H   0  0  0  0  0  0  0  0  0  0  0  0
    7.0764   -1.9947    0.0000 H   0  0  0  0  0  0  0  0  0  0  0  0
    8.4793   -2.8047    0.0000 H   0  0  0  0  0  0  0  0  0  0  0  0
   10.4842   -2.5788    0.0000 H   0  0  0  0  0  0  0  0  0  0  0  0
    2.3356    0.1853    0.0000 H   0  0  0  0  0  0  0  0  0  0  0  0
    4.6056    1.8346    0.0000 H   0  0  0  0  0  0  0  0  0  0  0  0
    1.3834    1.4959    0.0000 H   0  0  0  0  0  0  0  0  0  0  0  0
    3.6534    3.1452    0.0000 H   0  0  0  0  0  0  0  0  0  0  0  0
   11.2089    0.6984    0.0000 H   0  0  0  0  0  0  0  0  0  0  0  0
   10.1882    1.0320    0.0000 H   0  0  0  0  0  0  0  0  0  0  0  0
    2.0423    2.9758    0.0000 H   0  0  0  0  0  0  0  0  0  0  0  0
  1 15  1  0  0  0  0
  2  5  1  0  0  0  0
  2 13  1  0  0  0  0
  2 15  1  0  0  0  0
  3  6  1  0  0  0  0
  3 10  1  0  0  0  0
  3 29  1  0  0  0  0
  4  5  2  0  0  0  0
  4 11  1  0  0  0  0
  6 18  2  0  0  0  0
  7 18  1  0  0  0  0
  7 34  1  0  0  0  0
  7 35  1  0  0  0  0
  8 11  1  0  0  0  0
  8 12  2  0  0  0  0
  8 14  1  0  0  0  0
  9 10  2  0  0  0  0
  9 12  1  0  0  0  0
  9 18  1  0  0  0  0
 10 16  1  0  0  0  0
 11 15  2  0  0  0  0
 12 24  1  0  0  0  0
 13 17  1  0  0  0  0
 13 25  1  0  0  0  0
 13 26  1  0  0  0  0
 14 16  2  0  0  0  0
 14 27  1  0  0  0  0
 16 28  1  0  0  0  0
 17 19  2  0  0  0  0
 17 20  1  0  0  0  0
 19 21  1  0  0  0  0
 19 30  1  0  0  0  0
 20 22  2  0  0  0  0
 20 31  1  0  0  0  0
 21 23  2  0  0  0  0
 21 32  1  0  0  0  0
 22 23  1  0  0  0  0
 22 33  1  0  0  0  0
 23 36  1  0  0  0  0
M  END
> <PUBCHEM_COMPOUND_CID>
49830433

> <PUBCHEM_COMPOUND_CANONICALIZED>
1

> <PUBCHEM_CACTVS_COMPLEXITY>
404

> <PUBCHEM_CACTVS_HBOND_ACCEPTOR>
4

> <PUBCHEM_CACTVS_HBOND_DONOR>
2

> <PUBCHEM_CACTVS_ROTATABLE_BOND>
3

> <PUBCHEM_CACTVS_SUBSKEYS>
AAADccB7gAAAAgAAAAAAAAAAAAAAAWLAAAAwYAAAAAAAAFgB/AAAHAA4AAAADAjDHgQx8PJrAACiAyZiZACSBAYhkgAc+SA4dJgIYKLA0dGUpAhwmADIyAcQgMAOCAACAAACAAAQAAQAAAQAAAAAAAAAAA==

> <PUBCHEM_IUPAC_OPENEYE_NAME>
5-(1-benzyl-5-iodo-triazol-4-yl)-1H-indazol-3-amine

> <PUBCHEM_IUPAC_CAS_NAME>
5-[5-iodo-1-(phenylmethyl)-4-triazolyl]-1H-indazol-3-amine

> <PUBCHEM_IUPAC_NAME_MARKUP>
5-(1-benzyl-5-iodotriazol-4-yl)-1<I>H</I>-indazol-3-amine

> <PUBCHEM_IUPAC_NAME>
5-(1-benzyl-5-iodotriazol-4-yl)-1H-indazol-3-amine

> <PUBCHEM_IUPAC_SYSTEMATIC_NAME>
5-[5-iodanyl-1-(phenylmethyl)-1,2,3-triazol-4-yl]-1H-indazol-3-amine

> <PUBCHEM_IUPAC_TRADITIONAL_NAME>
[5-(1-benzyl-5-iodo-triazol-4-yl)-1H-indazol-3-yl]amine

> <PUBCHEM_IUPAC_INCHI>
InChI=1S/C16H13IN6/c17-15-14(11-6-7-13-12(8-11)16(18)21-19-13)20-22-23(15)9-10-4-2-1-3-5-10/h1-8H,9H2,(H3,18,19,21)

> <PUBCHEM_IUPAC_INCHIKEY>
AOBLBPWPSKBHSI-UHFFFAOYSA-N

> <PUBCHEM_XLOGP3_AA>
2.9

> <PUBCHEM_EXACT_MASS>
416.02464

> <PUBCHEM_MOLECULAR_FORMULA>
C16H13IN6

> <PUBCHEM_MOLECULAR_WEIGHT>
416.22

> <PUBCHEM_SMILES>
C1=CC=C(C=C1)CN2C(=C(N=N2)C3=CC4=C(C=C3)NN=C4N)I

> <PUBCHEM_OPENEYE_CAN_SMILES>
C1=CC=C(C=C1)CN2C(=C(N=N2)C3=CC4=C(C=C3)NN=C4N)I

> <PUBCHEM_OPENEYE_ISO_SMILES>
C1=CC=C(C=C1)CN2C(=C(N=N2)C3=CC4=C(C=C3)NN=C4N)I

> <PUBCHEM_CACTVS_TPSA>
85.4

> <PUBCHEM_MONOISOTOPIC_WEIGHT>
416.02464

> <PUBCHEM_TOTAL_CHARGE>
0

> <PUBCHEM_HEAVY_ATOM_COUNT>
23

> <PUBCHEM_ATOM_DEF_STEREO_COUNT>
0

> <PUBCHEM_ATOM_UDEF_STEREO_COUNT>
0

> <PUBCHEM_BOND_DEF_STEREO_COUNT>
0

> <PUBCHEM_BOND_UDEF_STEREO_COUNT>
0

> <PUBCHEM_ISOTOPIC_ATOM_COUNT>
0

> <PUBCHEM_COMPONENT_COUNT>
1

> <PUBCHEM_CACTVS_TAUTO_COUNT>
-1

> <PUBCHEM_COORDINATE_TYPE>
1
5
255

> <PUBCHEM_BONDANNOTATIONS>
10  16  8
11  15  8
14  16  8
17  19  8
17  20  8
19  21  8
2  15  8
2  5  8
20  22  8
21  23  8
22  23  8
3  10  8
3  6  8
4  11  8
4  5  8
6  18  8
8  12  8
8  14  8
9  10  8
9  12  8
9  18  8

$$$$
