71718330
  -OEChem-03202504582D

 41 43  0     1  0  0  0  0  0999 V2000
    2.8660    1.0000    0.0000 O   0  0  0  0  0  0  0  0  0  0  0  0
    5.4641   -0.5000    0.0000 N   0  0  3  0  0  0  0  0  0  0  0  0
    3.7320   -2.5000    0.0000 N   0  0  0  0  0  0  0  0  0  0  0  0
    6.3301    2.0000    0.0000 N   0  0  0  0  0  0  0  0  0  0  0  0
    3.7320   -0.5000    0.0000 C   0  0  1  0  0  0  0  0  0  0  0  0
    4.5981   -1.0000    0.0000 C   0  0  0  0  0  0  0  0  0  0  0  0
    5.4641    0.5000    0.0000 C   0  0  0  0  0  0  0  0  0  0  0  0
    2.8660   -1.0000    0.0000 C   0  0  0  0  0  0  0  0  0  0  0  0
    3.7320    0.5000    0.0000 C   0  0  0  0  0  0  0  0  0  0  0  0
    4.5981    1.0000    0.0000 C   0  0  0  0  0  0  0  0  0  0  0  0
    6.3301   -1.0000    0.0000 C   0  0  0  0  0  0  0  0  0  0  0  0
    2.8660   -2.0000    0.0000 C   0  0  0  0  0  0  0  0  0  0  0  0
    4.5981    2.0000    0.0000 C   0  0  0  0  0  0  0  0  0  0  0  0
    2.0000   -2.5000    0.0000 C   0  0  0  0  0  0  0  0  0  0  0  0
    5.4641    2.5000    0.0000 C   0  0  0  0  0  0  0  0  0  0  0  0
    2.0000   -3.5000    0.0000 C   0  0  0  0  0  0  0  0  0  0  0  0
    3.7320   -3.5000    0.0000 C   0  0  0  0  0  0  0  0  0  0  0  0
    5.4641    3.5000    0.0000 C   0  0  0  0  0  0  0  0  0  0  0  0
    2.8660   -4.0000    0.0000 C   0  0  0  0  0  0  0  0  0  0  0  0
    6.3301    4.0000    0.0000 C   0  0  0  0  0  0  0  0  0  0  0  0
    7.1962    2.5000    0.0000 C   0  0  0  0  0  0  0  0  0  0  0  0
    7.1962    3.5000    0.0000 C   0  0  0  0  0  0  0  0  0  0  0  0
    3.7320   -1.1200    0.0000 H   0  0  0  0  0  0  0  0  0  0  0  0
    4.1996   -1.4750    0.0000 H   0  0  0  0  0  0  0  0  0  0  0  0
    4.9966   -1.4750    0.0000 H   0  0  0  0  0  0  0  0  0  0  0  0
    6.0747    0.3923    0.0000 H   0  0  0  0  0  0  0  0  0  0  0  0
    5.6762    1.0826    0.0000 H   0  0  0  0  0  0  0  0  0  0  0  0
    2.6540   -0.4174    0.0000 H   0  0  0  0  0  0  0  0  0  0  0  0
    2.2554   -1.1077    0.0000 H   0  0  0  0  0  0  0  0  0  0  0  0
    6.0201   -1.5369    0.0000 H   0  0  0  0  0  0  0  0  0  0  0  0
    6.8671   -1.3100    0.0000 H   0  0  0  0  0  0  0  0  0  0  0  0
    6.6401   -0.4631    0.0000 H   0  0  0  0  0  0  0  0  0  0  0  0
    4.0611    2.3100    0.0000 H   0  0  0  0  0  0  0  0  0  0  0  0
    1.4631   -2.1900    0.0000 H   0  0  0  0  0  0  0  0  0  0  0  0
    1.4631   -3.8100    0.0000 H   0  0  0  0  0  0  0  0  0  0  0  0
    4.2690   -3.8100    0.0000 H   0  0  0  0  0  0  0  0  0  0  0  0
    4.9272    3.8100    0.0000 H   0  0  0  0  0  0  0  0  0  0  0  0
    2.8660   -4.6200    0.0000 H   0  0  0  0  0  0  0  0  0  0  0  0
    6.3301    4.6200    0.0000 H   0  0  0  0  0  0  0  0  0  0  0  0
    7.7331    2.1900    0.0000 H   0  0  0  0  0  0  0  0  0  0  0  0
    7.7331    3.8100    0.0000 H   0  0  0  0  0  0  0  0  0  0  0  0
  1  9  2  0  0  0  0
  2  6  1  0  0  0  0
  2  7  1  0  0  0  0
  2 11  1  0  0  0  0
  3 12  1  0  0  0  0
  3 17  2  0  0  0  0
  4 15  1  0  0  0  0
  4 21  2  0  0  0  0
  5  6  1  0  0  0  0
  5  8  1  1  0  0  0
  5  9  1  0  0  0  0
  5 23  1  0  0  0  0
  6 24  1  0  0  0  0
  6 25  1  0  0  0  0
  7 10  1  0  0  0  0
  7 26  1  0  0  0  0
  7 27  1  0  0  0  0
  8 12  1  0  0  0  0
  8 28  1  0  0  0  0
  8 29  1  0  0  0  0
  9 10  1  0  0  0  0
 10 13  2  0  0  0  0
 11 30  1  0  0  0  0
 11 31  1  0  0  0  0
 11 32  1  0  0  0  0
 12 14  2  0  0  0  0
 13 15  1  0  0  0  0
 13 33  1  0  0  0  0
 14 16  1  0  0  0  0
 14 34  1  0  0  0  0
 15 18  2  0  0  0  0
 16 19  2  0  0  0  0
 16 35  1  0  0  0  0
 17 19  1  0  0  0  0
 17 36  1  0  0  0  0
 18 20  1  0  0  0  0
 18 37  1  0  0  0  0
 19 38  1  0  0  0  0
 20 22  2  0  0  0  0
 20 39  1  0  0  0  0
 21 22  1  0  0  0  0
 21 40  1  0  0  0  0
 22 41  1  0  0  0  0
M  END
> <PUBCHEM_COMPOUND_CID>
71718330

> <PUBCHEM_COMPOUND_CANONICALIZED>
1

> <PUBCHEM_CACTVS_COMPLEXITY>
421

> <PUBCHEM_CACTVS_HBOND_ACCEPTOR>
4

> <PUBCHEM_CACTVS_HBOND_DONOR>
0

> <PUBCHEM_CACTVS_ROTATABLE_BOND>
3

> <PUBCHEM_CACTVS_SUBSKEYS>
AAADceB7IAAAAAAAAAAAAAAAAAAAAAAAAAAsWLAAAAAAAAAB4AAAHgAAAAAADQzBlgQ+gJMIEACoA7R3RACCgCAxAiAI2CE4ZNgIIPrAkZGEIAhggADIyYcciMCOAAAAAAAAAAAAAAAAAAAAAAAAAAAAAA==

> <PUBCHEM_IUPAC_OPENEYE_NAME>
(3R,5E)-1-methyl-3-(2-pyridylmethyl)-5-(2-pyridylmethylene)piperidin-4-one

> <PUBCHEM_IUPAC_CAS_NAME>
(3R,5E)-1-methyl-3-(2-pyridinylmethyl)-5-(2-pyridinylmethylidene)-4-piperidinone

> <PUBCHEM_IUPAC_NAME_MARKUP>
(3<I>R</I>,5<I>E</I>)-1-methyl-3-(pyridin-2-ylmethyl)-5-(pyridin-2-ylmethylidene)piperidin-4-one

> <PUBCHEM_IUPAC_NAME>
(3R,5E)-1-methyl-3-(pyridin-2-ylmethyl)-5-(pyridin-2-ylmethylidene)piperidin-4-one

> <PUBCHEM_IUPAC_SYSTEMATIC_NAME>
(3R,5E)-1-methyl-3-(pyridin-2-ylmethyl)-5-(pyridin-2-ylmethylidene)piperidin-4-one

> <PUBCHEM_IUPAC_TRADITIONAL_NAME>
(3R,5E)-1-methyl-3-(2-pyridylmethyl)-5-(2-pyridylmethylene)-4-piperidone

> <PUBCHEM_IUPAC_INCHI>
InChI=1S/C18H19N3O/c1-21-12-14(10-16-6-2-4-8-19-16)18(22)15(13-21)11-17-7-3-5-9-20-17/h2-10,15H,11-13H2,1H3/b14-10+/t15-/m1/s1

> <PUBCHEM_IUPAC_INCHIKEY>
XNBNPTNODRUPCB-YVGNARHYSA-N

> <PUBCHEM_XLOGP3_AA>
1.6

> <PUBCHEM_EXACT_MASS>
293.152812238

> <PUBCHEM_MOLECULAR_FORMULA>
C18H19N3O

> <PUBCHEM_MOLECULAR_WEIGHT>
293.4

> <PUBCHEM_SMILES>
CN1C[C@H](C(=O)/C(=C/C2=CC=CC=N2)/C1)CC3=CC=CC=N3

> <PUBCHEM_OPENEYE_CAN_SMILES>
CN1CC(C(=O)C(=CC2=CC=CC=N2)C1)CC3=CC=CC=N3

> <PUBCHEM_OPENEYE_ISO_SMILES>
CN1C[C@H](C(=O)/C(=C/C2=CC=CC=N2)/C1)CC3=CC=CC=N3

> <PUBCHEM_CACTVS_TPSA>
46.1

> <PUBCHEM_MONOISOTOPIC_WEIGHT>
293.152812238

> <PUBCHEM_TOTAL_CHARGE>
0

> <PUBCHEM_HEAVY_ATOM_COUNT>
22

> <PUBCHEM_ATOM_DEF_STEREO_COUNT>
1

> <PUBCHEM_ATOM_UDEF_STEREO_COUNT>
0

> <PUBCHEM_BOND_DEF_STEREO_COUNT>
1

> <PUBCHEM_BOND_UDEF_STEREO_COUNT>
0

> <PUBCHEM_ISOTOPIC_ATOM_COUNT>
0

> <PUBCHEM_COMPONENT_COUNT>
1

> <PUBCHEM_CACTVS_TAUTO_COUNT>
-1

> <PUBCHEM_COORDINATE_TYPE>
1
5
255

> <PUBCHEM_BONDANNOTATIONS>
12  14  8
14  16  8
15  18  8
16  19  8
17  19  8
18  20  8
20  22  8
21  22  8
3  12  8
3  17  8
4  15  8
4  21  8
5  8  5

$$$$
