49830453
  -OEChem-03202503542D

 50 52  0     0  0  0  0  0  0999 V2000
    7.1962    1.4720    0.0000 O   0  0  0  0  0  0  0  0  0  0  0  0
    2.0000   -2.5280    0.0000 O   0  0  0  0  0  0  0  0  0  0  0  0
    9.0084   -1.3327    0.0000 N   0  0  0  0  0  0  0  0  0  0  0  0
    9.5920   -0.5280    0.0000 N   0  0  0  0  0  0  0  0  0  0  0  0
    9.3191    1.2272    0.0000 N   0  0  0  0  0  0  0  0  0  0  0  0
    2.8660   -4.0280    0.0000 N   0  0  0  0  0  0  0  0  0  0  0  0
    5.4641    3.4720    0.0000 C   0  0  0  0  0  0  0  0  0  0  0  0
    6.3301    2.9720    0.0000 C   0  0  0  0  0  0  0  0  0  0  0  0
    4.5981    3.9720    0.0000 C   0  0  0  0  0  0  0  0  0  0  0  0
    5.9641    4.3380    0.0000 C   0  0  0  0  0  0  0  0  0  0  0  0
    4.9641    2.6060    0.0000 C   0  0  0  0  0  0  0  0  0  0  0  0
    6.3301    1.9720    0.0000 C   0  0  0  0  0  0  0  0  0  0  0  0
    7.1962    0.4720    0.0000 C   0  0  0  0  0  0  0  0  0  0  0  0
    8.0622   -0.0280    0.0000 C   0  0  0  0  0  0  0  0  0  0  0  0
    8.0622   -1.0280    0.0000 C   0  0  0  0  0  0  0  0  0  0  0  0
    6.3301   -1.0280    0.0000 C   0  0  0  0  0  0  0  0  0  0  0  0
    6.3301   -0.0280    0.0000 C   0  0  0  0  0  0  0  0  0  0  0  0
    7.1962   -1.5280    0.0000 C   0  0  0  0  0  0  0  0  0  0  0  0
    9.0084    0.2767    0.0000 C   0  0  0  0  0  0  0  0  0  0  0  0
    5.4641   -1.5280    0.0000 C   0  0  0  0  0  0  0  0  0  0  0  0
    5.4641   -2.5280    0.0000 C   0  0  0  0  0  0  0  0  0  0  0  0
    4.5981   -1.0280    0.0000 C   0  0  0  0  0  0  0  0  0  0  0  0
    4.5981   -3.0280    0.0000 C   0  0  0  0  0  0  0  0  0  0  0  0
    3.7320   -1.5280    0.0000 C   0  0  0  0  0  0  0  0  0  0  0  0
    3.7320   -2.5280    0.0000 C   0  0  0  0  0  0  0  0  0  0  0  0
    2.8660   -3.0280    0.0000 C   0  0  0  0  0  0  0  0  0  0  0  0
    6.9407    2.8643    0.0000 H   0  0  0  0  0  0  0  0  0  0  0  0
    6.5422    3.5546    0.0000 H   0  0  0  0  0  0  0  0  0  0  0  0
    4.9081    4.5089    0.0000 H   0  0  0  0  0  0  0  0  0  0  0  0
    4.0611    4.2820    0.0000 H   0  0  0  0  0  0  0  0  0  0  0  0
    4.2881    3.4350    0.0000 H   0  0  0  0  0  0  0  0  0  0  0  0
    6.5010    4.0280    0.0000 H   0  0  0  0  0  0  0  0  0  0  0  0
    6.2741    4.8750    0.0000 H   0  0  0  0  0  0  0  0  0  0  0  0
    5.4272    4.6480    0.0000 H   0  0  0  0  0  0  0  0  0  0  0  0
    4.4272    2.9160    0.0000 H   0  0  0  0  0  0  0  0  0  0  0  0
    4.6541    2.0690    0.0000 H   0  0  0  0  0  0  0  0  0  0  0  0
    5.5010    2.2960    0.0000 H   0  0  0  0  0  0  0  0  0  0  0  0
    5.7196    2.0796    0.0000 H   0  0  0  0  0  0  0  0  0  0  0  0
    6.1181    1.3894    0.0000 H   0  0  0  0  0  0  0  0  0  0  0  0
    5.7932    0.2820    0.0000 H   0  0  0  0  0  0  0  0  0  0  0  0
    7.1962   -2.1480    0.0000 H   0  0  0  0  0  0  0  0  0  0  0  0
    9.2010   -1.9221    0.0000 H   0  0  0  0  0  0  0  0  0  0  0  0
    6.0010   -2.8380    0.0000 H   0  0  0  0  0  0  0  0  0  0  0  0
    4.5981   -0.4080    0.0000 H   0  0  0  0  0  0  0  0  0  0  0  0
    9.9257    1.3551    0.0000 H   0  0  0  0  0  0  0  0  0  0  0  0
    8.9050    1.6887    0.0000 H   0  0  0  0  0  0  0  0  0  0  0  0
    4.5981   -3.6480    0.0000 H   0  0  0  0  0  0  0  0  0  0  0  0
    3.1951   -1.2180    0.0000 H   0  0  0  0  0  0  0  0  0  0  0  0
    2.3291   -4.3380    0.0000 H   0  0  0  0  0  0  0  0  0  0  0  0
    3.4030   -4.3380    0.0000 H   0  0  0  0  0  0  0  0  0  0  0  0
  1 12  1  0  0  0  0
  1 13  1  0  0  0  0
  2 26  2  0  0  0  0
  3  4  1  0  0  0  0
  3 15  1  0  0  0  0
  3 42  1  0  0  0  0
  4 19  2  0  0  0  0
  5 19  1  0  0  0  0
  5 45  1  0  0  0  0
  5 46  1  0  0  0  0
  6 26  1  0  0  0  0
  6 49  1  0  0  0  0
  6 50  1  0  0  0  0
  7  8  1  0  0  0  0
  7  9  1  0  0  0  0
  7 10  1  0  0  0  0
  7 11  1  0  0  0  0
  8 12  1  0  0  0  0
  8 27  1  0  0  0  0
  8 28  1  0  0  0  0
  9 29  1  0  0  0  0
  9 30  1  0  0  0  0
  9 31  1  0  0  0  0
 10 32  1  0  0  0  0
 10 33  1  0  0  0  0
 10 34  1  0  0  0  0
 11 35  1  0  0  0  0
 11 36  1  0  0  0  0
 11 37  1  0  0  0  0
 12 38  1  0  0  0  0
 12 39  1  0  0  0  0
 13 14  1  0  0  0  0
 13 17  2  0  0  0  0
 14 15  2  0  0  0  0
 14 19  1  0  0  0  0
 15 18  1  0  0  0  0
 16 17  1  0  0  0  0
 16 18  2  0  0  0  0
 16 20  1  0  0  0  0
 17 40  1  0  0  0  0
 18 41  1  0  0  0  0
 20 21  2  0  0  0  0
 20 22  1  0  0  0  0
 21 23  1  0  0  0  0
 21 43  1  0  0  0  0
 22 24  2  0  0  0  0
 22 44  1  0  0  0  0
 23 25  2  0  0  0  0
 23 47  1  0  0  0  0
 24 25  1  0  0  0  0
 24 48  1  0  0  0  0
 25 26  1  0  0  0  0
M  END
> <PUBCHEM_COMPOUND_CID>
49830453

> <PUBCHEM_COMPOUND_CANONICALIZED>
1

> <PUBCHEM_CACTVS_COMPLEXITY>
485

> <PUBCHEM_CACTVS_HBOND_ACCEPTOR>
4

> <PUBCHEM_CACTVS_HBOND_DONOR>
3

> <PUBCHEM_CACTVS_ROTATABLE_BOND>
6

> <PUBCHEM_CACTVS_SUBSKEYS>
AAADceB7sAAAAAAAAAAAAAAAAAAAAWAAAAAwYAAAAAAAAFgB9AAAHgAYAAAADgyhngIz9vBjBACqAydycACSDAIkIgAcuSE2bNgMJjKE9duCvSD22BkI6YeY2PGPwAABQgAKAACAAAKEABQAAAAAAAAAAA==

> <PUBCHEM_IUPAC_OPENEYE_NAME>
4-[3-amino-4-(3,3-dimethylbutoxy)-1H-indazol-6-yl]benzamide

> <PUBCHEM_IUPAC_CAS_NAME>
4-[3-amino-4-(3,3-dimethylbutoxy)-1H-indazol-6-yl]benzamide

> <PUBCHEM_IUPAC_NAME_MARKUP>
4-[3-amino-4-(3,3-dimethylbutoxy)-1<I>H</I>-indazol-6-yl]benzamide

> <PUBCHEM_IUPAC_NAME>
4-[3-amino-4-(3,3-dimethylbutoxy)-1H-indazol-6-yl]benzamide

> <PUBCHEM_IUPAC_SYSTEMATIC_NAME>
4-[3-azanyl-4-(3,3-dimethylbutoxy)-1H-indazol-6-yl]benzamide

> <PUBCHEM_IUPAC_TRADITIONAL_NAME>
4-[3-amino-4-(3,3-dimethylbutoxy)-1H-indazol-6-yl]benzamide

> <PUBCHEM_IUPAC_INCHI>
InChI=1S/C20H24N4O2/c1-20(2,3)8-9-26-16-11-14(10-15-17(16)18(21)24-23-15)12-4-6-13(7-5-12)19(22)25/h4-7,10-11H,8-9H2,1-3H3,(H2,22,25)(H3,21,23,24)

> <PUBCHEM_IUPAC_INCHIKEY>
KQSQZFWRXUXPMI-UHFFFAOYSA-N

> <PUBCHEM_XLOGP3_AA>
3.8

> <PUBCHEM_EXACT_MASS>
352.18992602

> <PUBCHEM_MOLECULAR_FORMULA>
C20H24N4O2

> <PUBCHEM_MOLECULAR_WEIGHT>
352.4

> <PUBCHEM_SMILES>
CC(C)(C)CCOC1=CC(=CC2=C1C(=NN2)N)C3=CC=C(C=C3)C(=O)N

> <PUBCHEM_OPENEYE_CAN_SMILES>
CC(C)(C)CCOC1=CC(=CC2=C1C(=NN2)N)C3=CC=C(C=C3)C(=O)N

> <PUBCHEM_OPENEYE_ISO_SMILES>
CC(C)(C)CCOC1=CC(=CC2=C1C(=NN2)N)C3=CC=C(C=C3)C(=O)N

> <PUBCHEM_CACTVS_TPSA>
107

> <PUBCHEM_MONOISOTOPIC_WEIGHT>
352.18992602

> <PUBCHEM_TOTAL_CHARGE>
0

> <PUBCHEM_HEAVY_ATOM_COUNT>
26

> <PUBCHEM_ATOM_DEF_STEREO_COUNT>
0

> <PUBCHEM_ATOM_UDEF_STEREO_COUNT>
0

> <PUBCHEM_BOND_DEF_STEREO_COUNT>
0

> <PUBCHEM_BOND_UDEF_STEREO_COUNT>
0

> <PUBCHEM_ISOTOPIC_ATOM_COUNT>
0

> <PUBCHEM_COMPONENT_COUNT>
1

> <PUBCHEM_CACTVS_TAUTO_COUNT>
-1

> <PUBCHEM_COORDINATE_TYPE>
1
5
255

> <PUBCHEM_BONDANNOTATIONS>
13  14  8
13  17  8
14  15  8
14  19  8
15  18  8
16  17  8
16  18  8
20  21  8
20  22  8
21  23  8
22  24  8
23  25  8
24  25  8
3  15  8
3  4  8
4  19  8

$$$$
