11640926
  -OEChem-03202505552D

 55 56  0     0  0  0  0  0  0999 V2000
    2.8660    1.0950    0.0000 S   0  0  0  0  0  0  0  0  0  0  0  0
    6.3301    1.0950    0.0000 O   0  0  0  0  0  0  0  0  0  0  0  0
    2.8660   -0.9050    0.0000 O   0  0  0  0  0  0  0  0  0  0  0  0
   11.5263   -0.9050    0.0000 O   0  0  0  0  0  0  0  0  0  0  0  0
    3.3660    1.9610    0.0000 O   0  0  0  0  0  0  0  0  0  0  0  0
    2.3660    0.2290    0.0000 O   0  0  0  0  0  0  0  0  0  0  0  0
    7.1962    0.5950    0.0000 O   0  0  0  0  0  0  0  0  0  0  0  0
    8.0622   -0.9050    0.0000 N   0  0  0  0  0  0  0  0  0  0  0  0
    9.7942   -0.9050    0.0000 N   0  0  0  0  0  0  0  0  0  0  0  0
    9.7942    2.0950    0.0000 N   0  0  0  0  0  0  0  0  0  0  0  0
   12.3923    1.5950    0.0000 N   0  0  0  0  0  0  0  0  0  0  0  0
    5.4641   -0.4050    0.0000 C   0  0  0  0  0  0  0  0  0  0  0  0
    3.7320    0.5950    0.0000 C   0  0  0  0  0  0  0  0  0  0  0  0
    6.3301   -0.9050    0.0000 C   0  0  0  0  0  0  0  0  0  0  0  0
    5.4641    0.5950    0.0000 C   0  0  0  0  0  0  0  0  0  0  0  0
    3.7320   -0.4050    0.0000 C   0  0  0  0  0  0  0  0  0  0  0  0
    4.5981   -0.9050    0.0000 C   0  0  0  0  0  0  0  0  0  0  0  0
    4.5981    1.0950    0.0000 C   0  0  0  0  0  0  0  0  0  0  0  0
    7.1962   -0.4050    0.0000 C   0  0  0  0  0  0  0  0  0  0  0  0
    2.0000    1.5950    0.0000 C   0  0  0  0  0  0  0  0  0  0  0  0
    8.9282   -0.4050    0.0000 C   0  0  0  0  0  0  0  0  0  0  0  0
   11.5263   -1.9050    0.0000 C   0  0  0  0  0  0  0  0  0  0  0  0
   10.6603   -0.4050    0.0000 C   0  0  0  0  0  0  0  0  0  0  0  0
    8.9282    0.5950    0.0000 C   0  0  0  0  0  0  0  0  0  0  0  0
    9.7942    1.0950    0.0000 C   0  0  0  0  0  0  0  0  0  0  0  0
   10.6603    0.5950    0.0000 C   0  0  0  0  0  0  0  0  0  0  0  0
   12.3923   -2.4050    0.0000 C   0  0  0  0  0  0  0  0  0  0  0  0
   10.6603   -2.4050    0.0000 C   0  0  0  0  0  0  0  0  0  0  0  0
    6.3301    2.0950    0.0000 C   0  0  0  0  0  0  0  0  0  0  0  0
    2.8660   -1.9050    0.0000 C   0  0  0  0  0  0  0  0  0  0  0  0
   11.5263    1.0950    0.0000 C   0  0  0  0  0  0  0  0  0  0  0  0
    5.9316   -1.3800    0.0000 H   0  0  0  0  0  0  0  0  0  0  0  0
    6.7287   -1.3800    0.0000 H   0  0  0  0  0  0  0  0  0  0  0  0
    4.5981   -1.5250    0.0000 H   0  0  0  0  0  0  0  0  0  0  0  0
    4.5981    1.7150    0.0000 H   0  0  0  0  0  0  0  0  0  0  0  0
    2.3100    2.1319    0.0000 H   0  0  0  0  0  0  0  0  0  0  0  0
    1.4631    1.9050    0.0000 H   0  0  0  0  0  0  0  0  0  0  0  0
    1.6900    1.0581    0.0000 H   0  0  0  0  0  0  0  0  0  0  0  0
    8.0622   -1.5250    0.0000 H   0  0  0  0  0  0  0  0  0  0  0  0
   12.0632   -1.5950    0.0000 H   0  0  0  0  0  0  0  0  0  0  0  0
    8.3913    0.9050    0.0000 H   0  0  0  0  0  0  0  0  0  0  0  0
   12.0823   -2.9419    0.0000 H   0  0  0  0  0  0  0  0  0  0  0  0
   12.9292   -2.7150    0.0000 H   0  0  0  0  0  0  0  0  0  0  0  0
   12.7023   -1.8681    0.0000 H   0  0  0  0  0  0  0  0  0  0  0  0
   10.3503   -1.8681    0.0000 H   0  0  0  0  0  0  0  0  0  0  0  0
   10.1233   -2.7150    0.0000 H   0  0  0  0  0  0  0  0  0  0  0  0
   10.9703   -2.9419    0.0000 H   0  0  0  0  0  0  0  0  0  0  0  0
    6.9501    2.0950    0.0000 H   0  0  0  0  0  0  0  0  0  0  0  0
    6.3301    2.7150    0.0000 H   0  0  0  0  0  0  0  0  0  0  0  0
    5.7101    2.0950    0.0000 H   0  0  0  0  0  0  0  0  0  0  0  0
    2.2460   -1.9050    0.0000 H   0  0  0  0  0  0  0  0  0  0  0  0
    2.8660   -2.5250    0.0000 H   0  0  0  0  0  0  0  0  0  0  0  0
    3.4860   -1.9050    0.0000 H   0  0  0  0  0  0  0  0  0  0  0  0
    9.2573    2.4050    0.0000 H   0  0  0  0  0  0  0  0  0  0  0  0
   10.3312    2.4050    0.0000 H   0  0  0  0  0  0  0  0  0  0  0  0
  1  5  2  0  0  0  0
  1  6  2  0  0  0  0
  1 13  1  0  0  0  0
  1 20  1  0  0  0  0
  2 15  1  0  0  0  0
  2 29  1  0  0  0  0
  3 16  1  0  0  0  0
  3 30  1  0  0  0  0
  4 22  1  0  0  0  0
  4 23  1  0  0  0  0
  7 19  2  0  0  0  0
  8 19  1  0  0  0  0
  8 21  1  0  0  0  0
  8 39  1  0  0  0  0
  9 21  2  0  0  0  0
  9 23  1  0  0  0  0
 10 25  1  0  0  0  0
 10 54  1  0  0  0  0
 10 55  1  0  0  0  0
 11 31  3  0  0  0  0
 12 14  1  0  0  0  0
 12 15  1  0  0  0  0
 12 17  2  0  0  0  0
 13 16  2  0  0  0  0
 13 18  1  0  0  0  0
 14 19  1  0  0  0  0
 14 32  1  0  0  0  0
 14 33  1  0  0  0  0
 15 18  2  0  0  0  0
 16 17  1  0  0  0  0
 17 34  1  0  0  0  0
 18 35  1  0  0  0  0
 20 36  1  0  0  0  0
 20 37  1  0  0  0  0
 20 38  1  0  0  0  0
 21 24  1  0  0  0  0
 22 27  1  0  0  0  0
 22 28  1  0  0  0  0
 22 40  1  0  0  0  0
 23 26  2  0  0  0  0
 24 25  2  0  0  0  0
 24 41  1  0  0  0  0
 25 26  1  0  0  0  0
 26 31  1  0  0  0  0
 27 42  1  0  0  0  0
 27 43  1  0  0  0  0
 27 44  1  0  0  0  0
 28 45  1  0  0  0  0
 28 46  1  0  0  0  0
 28 47  1  0  0  0  0
 29 48  1  0  0  0  0
 29 49  1  0  0  0  0
 29 50  1  0  0  0  0
 30 51  1  0  0  0  0
 30 52  1  0  0  0  0
 30 53  1  0  0  0  0
M  END
> <PUBCHEM_COMPOUND_CID>
11640926

> <PUBCHEM_COMPOUND_CANONICALIZED>
1

> <PUBCHEM_CACTVS_COMPLEXITY>
761

> <PUBCHEM_CACTVS_HBOND_ACCEPTOR>
9

> <PUBCHEM_CACTVS_HBOND_DONOR>
2

> <PUBCHEM_CACTVS_ROTATABLE_BOND>
8

> <PUBCHEM_CACTVS_SUBSKEYS>
AAADceB7uABAAAAAAAAAAAAAAAAAAAAAAAA8QAAAAAAAAAABwAAAHgQQAAAADByh2gKz95LIFAq4BidydHDiiCkhKjABmDs2bJiMpnLk/duOPCju1RvI6C/63LLOEQABBAAIIAAiAAIIABBAAAAAAAAAAA==

> <PUBCHEM_IUPAC_OPENEYE_NAME>
N-(4-amino-5-cyano-6-isopropoxy-2-pyridyl)-2-(2,5-dimethoxy-4-methylsulfonyl-phenyl)acetamide

> <PUBCHEM_IUPAC_CAS_NAME>
N-(4-amino-5-cyano-6-propan-2-yloxy-2-pyridinyl)-2-(2,5-dimethoxy-4-methylsulfonylphenyl)acetamide

> <PUBCHEM_IUPAC_NAME_MARKUP>
<I>N</I>-(4-amino-5-cyano-6-propan-2-yloxypyridin-2-yl)-2-(2,5-dimethoxy-4-methylsulfonylphenyl)acetamide

> <PUBCHEM_IUPAC_NAME>
N-(4-amino-5-cyano-6-propan-2-yloxypyridin-2-yl)-2-(2,5-dimethoxy-4-methylsulfonylphenyl)acetamide

> <PUBCHEM_IUPAC_SYSTEMATIC_NAME>
N-(4-azanyl-5-cyano-6-propan-2-yloxy-pyridin-2-yl)-2-(2,5-dimethoxy-4-methylsulfonyl-phenyl)ethanamide

> <PUBCHEM_IUPAC_TRADITIONAL_NAME>
N-(4-amino-5-cyano-6-isopropoxy-2-pyridyl)-2-(4-mesyl-2,5-dimethoxy-phenyl)acetamide

> <PUBCHEM_IUPAC_INCHI>
InChI=1S/C20H24N4O6S/c1-11(2)30-20-13(10-21)14(22)8-18(24-20)23-19(25)7-12-6-16(29-4)17(31(5,26)27)9-15(12)28-3/h6,8-9,11H,7H2,1-5H3,(H3,22,23,24,25)

> <PUBCHEM_IUPAC_INCHIKEY>
CSDDCHPGQGWRLI-UHFFFAOYSA-N

> <PUBCHEM_XLOGP3_AA>
1.8

> <PUBCHEM_EXACT_MASS>
448.14165567

> <PUBCHEM_MOLECULAR_FORMULA>
C20H24N4O6S

> <PUBCHEM_MOLECULAR_WEIGHT>
448.5

> <PUBCHEM_SMILES>
CC(C)OC1=C(C(=CC(=N1)NC(=O)CC2=CC(=C(C=C2OC)S(=O)(=O)C)OC)N)C#N

> <PUBCHEM_OPENEYE_CAN_SMILES>
CC(C)OC1=C(C(=CC(=N1)NC(=O)CC2=CC(=C(C=C2OC)S(=O)(=O)C)OC)N)C#N

> <PUBCHEM_OPENEYE_ISO_SMILES>
CC(C)OC1=C(C(=CC(=N1)NC(=O)CC2=CC(=C(C=C2OC)S(=O)(=O)C)OC)N)C#N

> <PUBCHEM_CACTVS_TPSA>
162

> <PUBCHEM_MONOISOTOPIC_WEIGHT>
448.14165567

> <PUBCHEM_TOTAL_CHARGE>
0

> <PUBCHEM_HEAVY_ATOM_COUNT>
31

> <PUBCHEM_ATOM_DEF_STEREO_COUNT>
0

> <PUBCHEM_ATOM_UDEF_STEREO_COUNT>
0

> <PUBCHEM_BOND_DEF_STEREO_COUNT>
0

> <PUBCHEM_BOND_UDEF_STEREO_COUNT>
0

> <PUBCHEM_ISOTOPIC_ATOM_COUNT>
0

> <PUBCHEM_COMPONENT_COUNT>
1

> <PUBCHEM_CACTVS_TAUTO_COUNT>
-1

> <PUBCHEM_COORDINATE_TYPE>
1
5
255

> <PUBCHEM_BONDANNOTATIONS>
12  15  8
12  17  8
13  16  8
13  18  8
15  18  8
16  17  8
21  24  8
23  26  8
24  25  8
25  26  8
9  21  8
9  23  8

$$$$
