49830636
  -OEChem-03202504002D

 63 68  0     0  0  0  0  0  0999 V2000
   12.6615    0.2799    0.0000 S   0  0  0  0  0  0  0  0  0  0  0  0
   16.5647   -0.9358    0.0000 O   0  0  0  0  0  0  0  0  0  0  0  0
    4.9368    1.6788    0.0000 N   0  0  0  0  0  0  0  0  0  0  0  0
    2.9789    1.2705    0.0000 N   0  0  0  0  0  0  0  0  0  0  0  0
    9.0971   -1.9223    0.0000 N   0  0  0  0  0  0  0  0  0  0  0  0
   10.0912   -1.9214    0.0000 N   0  0  0  0  0  0  0  0  0  0  0  0
   18.2595   -0.5787    0.0000 C   0  0  0  0  0  0  0  0  0  0  0  0
   19.2380   -0.3724    0.0000 C   0  0  0  0  0  0  0  0  0  0  0  0
   18.5702    0.3719    0.0000 C   0  0  0  0  0  0  0  0  0  0  0  0
   17.5152   -1.2465    0.0000 C   0  0  0  0  0  0  0  0  0  0  0  0
    4.2706    2.4245    0.0000 C   0  0  0  0  0  0  0  0  0  0  0  0
    4.6241    0.7289    0.0000 C   0  0  0  0  0  0  0  0  0  0  0  0
    5.9158    1.8829    0.0000 C   0  0  0  0  0  0  0  0  0  0  0  0
    3.2916    2.2204    0.0000 C   0  0  0  0  0  0  0  0  0  0  0  0
    3.6452    0.5248    0.0000 C   0  0  0  0  0  0  0  0  0  0  0  0
    8.2875    0.5612    0.0000 C   0  0  0  0  0  0  0  0  0  0  0  0
    6.5820    1.1372    0.0000 C   0  0  0  0  0  0  0  0  0  0  0  0
    9.2875    0.5612    0.0000 C   0  0  0  0  0  0  0  0  0  0  0  0
    7.9785   -0.3899    0.0000 C   0  0  0  0  0  0  0  0  0  0  0  0
    9.5965   -0.3899    0.0000 C   0  0  0  0  0  0  0  0  0  0  0  0
    8.7875   -0.9777    0.0000 C   0  0  0  0  0  0  0  0  0  0  0  0
    7.6025    1.3459    0.0000 C   0  0  0  0  0  0  0  0  0  0  0  0
    6.2602    0.1466    0.0000 C   0  0  0  0  0  0  0  0  0  0  0  0
    6.9631   -0.6221    0.0000 C   0  0  0  0  0  0  0  0  0  0  0  0
   15.8204   -1.6037    0.0000 C   0  0  0  0  0  0  0  0  0  0  0  0
   10.3992   -0.9763    0.0000 C   0  0  0  0  0  0  0  0  0  0  0  0
    2.0000    1.0664    0.0000 C   0  0  0  0  0  0  0  0  0  0  0  0
   11.3508   -0.6689    0.0000 C   0  0  0  0  0  0  0  0  0  0  0  0
   14.8699   -1.2930    0.0000 C   0  0  0  0  0  0  0  0  0  0  0  0
   12.1588   -1.2581    0.0000 C   0  0  0  0  0  0  0  0  0  0  0  0
   11.6615    0.2816    0.0000 C   0  0  0  0  0  0  0  0  0  0  0  0
   12.9689   -0.6717    0.0000 C   0  0  0  0  0  0  0  0  0  0  0  0
   13.9194   -0.9824    0.0000 C   0  0  0  0  0  0  0  0  0  0  0  0
   17.7401   -0.2401    0.0000 H   0  0  0  0  0  0  0  0  0  0  0  0
   19.4693   -0.9477    0.0000 H   0  0  0  0  0  0  0  0  0  0  0  0
   19.7644   -0.0448    0.0000 H   0  0  0  0  0  0  0  0  0  0  0  0
   18.9528    0.8598    0.0000 H   0  0  0  0  0  0  0  0  0  0  0  0
   18.0233    0.6639    0.0000 H   0  0  0  0  0  0  0  0  0  0  0  0
   17.2232   -1.7934    0.0000 H   0  0  0  0  0  0  0  0  0  0  0  0
   18.0031   -1.6291    0.0000 H   0  0  0  0  0  0  0  0  0  0  0  0
    4.7976    2.7510    0.0000 H   0  0  0  0  0  0  0  0  0  0  0  0
    4.0405    3.0002    0.0000 H   0  0  0  0  0  0  0  0  0  0  0  0
    4.6434    0.1092    0.0000 H   0  0  0  0  0  0  0  0  0  0  0  0
    5.2378    0.6403    0.0000 H   0  0  0  0  0  0  0  0  0  0  0  0
    6.4428    2.2094    0.0000 H   0  0  0  0  0  0  0  0  0  0  0  0
    5.6857    2.4587    0.0000 H   0  0  0  0  0  0  0  0  0  0  0  0
    3.2724    2.8401    0.0000 H   0  0  0  0  0  0  0  0  0  0  0  0
    2.6780    2.3090    0.0000 H   0  0  0  0  0  0  0  0  0  0  0  0
    3.1182    0.1983    0.0000 H   0  0  0  0  0  0  0  0  0  0  0  0
    3.8752   -0.0510    0.0000 H   0  0  0  0  0  0  0  0  0  0  0  0
    9.8940    0.6901    0.0000 H   0  0  0  0  0  0  0  0  0  0  0  0
    9.2227    1.1778    0.0000 H   0  0  0  0  0  0  0  0  0  0  0  0
    7.8009    1.9333    0.0000 H   0  0  0  0  0  0  0  0  0  0  0  0
    5.6542    0.0153    0.0000 H   0  0  0  0  0  0  0  0  0  0  0  0
    6.7783   -1.2140    0.0000 H   0  0  0  0  0  0  0  0  0  0  0  0
   15.5284   -2.1506    0.0000 H   0  0  0  0  0  0  0  0  0  0  0  0
   16.3083   -1.9862    0.0000 H   0  0  0  0  0  0  0  0  0  0  0  0
    1.8734    1.6733    0.0000 H   0  0  0  0  0  0  0  0  0  0  0  0
    1.3931    0.9398    0.0000 H   0  0  0  0  0  0  0  0  0  0  0  0
    2.1266    0.4594    0.0000 H   0  0  0  0  0  0  0  0  0  0  0  0
    8.7336   -2.4245    0.0000 H   0  0  0  0  0  0  0  0  0  0  0  0
   12.1577   -1.8781    0.0000 H   0  0  0  0  0  0  0  0  0  0  0  0
   11.2979    0.7838    0.0000 H   0  0  0  0  0  0  0  0  0  0  0  0
  1 31  1  0  0  0  0
  1 32  1  0  0  0  0
  2 10  1  0  0  0  0
  2 25  1  0  0  0  0
  3 11  1  0  0  0  0
  3 12  1  0  0  0  0
  3 13  1  0  0  0  0
  4 14  1  0  0  0  0
  4 15  1  0  0  0  0
  4 27  1  0  0  0  0
  5  6  1  0  0  0  0
  5 21  1  0  0  0  0
  5 61  1  0  0  0  0
  6 26  2  0  0  0  0
  7  8  1  0  0  0  0
  7  9  1  0  0  0  0
  7 10  1  0  0  0  0
  7 34  1  0  0  0  0
  8  9  1  0  0  0  0
  8 35  1  0  0  0  0
  8 36  1  0  0  0  0
  9 37  1  0  0  0  0
  9 38  1  0  0  0  0
 10 39  1  0  0  0  0
 10 40  1  0  0  0  0
 11 14  1  0  0  0  0
 11 41  1  0  0  0  0
 11 42  1  0  0  0  0
 12 15  1  0  0  0  0
 12 43  1  0  0  0  0
 12 44  1  0  0  0  0
 13 17  1  0  0  0  0
 13 45  1  0  0  0  0
 13 46  1  0  0  0  0
 14 47  1  0  0  0  0
 14 48  1  0  0  0  0
 15 49  1  0  0  0  0
 15 50  1  0  0  0  0
 16 18  1  0  0  0  0
 16 19  2  0  0  0  0
 16 22  1  0  0  0  0
 17 22  2  0  0  0  0
 17 23  1  0  0  0  0
 18 20  1  0  0  0  0
 18 51  1  0  0  0  0
 18 52  1  0  0  0  0
 19 21  1  0  0  0  0
 19 24  1  0  0  0  0
 20 21  2  0  0  0  0
 20 26  1  0  0  0  0
 22 53  1  0  0  0  0
 23 24  2  0  0  0  0
 23 54  1  0  0  0  0
 24 55  1  0  0  0  0
 25 29  1  0  0  0  0
 25 56  1  0  0  0  0
 25 57  1  0  0  0  0
 26 28  1  0  0  0  0
 27 58  1  0  0  0  0
 27 59  1  0  0  0  0
 27 60  1  0  0  0  0
 28 30  1  0  0  0  0
 28 31  2  0  0  0  0
 29 33  3  0  0  0  0
 30 32  2  0  0  0  0
 30 62  1  0  0  0  0
 31 63  1  0  0  0  0
 32 33  1  0  0  0  0
M  END
> <PUBCHEM_COMPOUND_CID>
49830636

> <PUBCHEM_COMPOUND_CANONICALIZED>
1

> <PUBCHEM_CACTVS_COMPLEXITY>
739

> <PUBCHEM_CACTVS_HBOND_ACCEPTOR>
5

> <PUBCHEM_CACTVS_HBOND_DONOR>
1

> <PUBCHEM_CACTVS_ROTATABLE_BOND>
7

> <PUBCHEM_CACTVS_SUBSKEYS>
AAADceB7oABAAAAAAAAAAAAAGAAAAeJEAAA8QAAAAAAWAGAB8AAAHgQYAAAADQjl3gaygZNjBAjmEyRiQAiTBIAgCBBYuTgoRJgIYKKg0dGWpAhkiACoyAcQgMAOwAACAAAQAACAAAQAACAAASAACQAAAA==

> <PUBCHEM_IUPAC_OPENEYE_NAME>
3-[5-[3-(cyclopropylmethoxy)prop-1-ynyl]-3-thienyl]-6-[(4-methylpiperazin-1-yl)methyl]-1,4-dihydroindeno[1,2-c]pyrazole

> <PUBCHEM_IUPAC_CAS_NAME>
3-[5-[3-(cyclopropylmethoxy)prop-1-ynyl]-3-thiophenyl]-6-[(4-methyl-1-piperazinyl)methyl]-1,4-dihydroindeno[1,2-c]pyrazole

> <PUBCHEM_IUPAC_NAME_MARKUP>
3-[5-[3-(cyclopropylmethoxy)prop-1-ynyl]thiophen-3-yl]-6-[(4-methylpiperazin-1-yl)methyl]-1,4-dihydroindeno[1,2-c]pyrazole

> <PUBCHEM_IUPAC_NAME>
3-[5-[3-(cyclopropylmethoxy)prop-1-ynyl]thiophen-3-yl]-6-[(4-methylpiperazin-1-yl)methyl]-1,4-dihydroindeno[1,2-c]pyrazole

> <PUBCHEM_IUPAC_SYSTEMATIC_NAME>
3-[5-[3-(cyclopropylmethoxy)prop-1-ynyl]thiophen-3-yl]-6-[(4-methylpiperazin-1-yl)methyl]-1,4-dihydroindeno[1,2-c]pyrazole

> <PUBCHEM_IUPAC_TRADITIONAL_NAME>
3-[5-[3-(cyclopropylmethoxy)prop-1-ynyl]-3-thienyl]-6-[(4-methylpiperazino)methyl]-1,4-dihydroindeno[1,2-c]pyrazole

> <PUBCHEM_IUPAC_INCHI>
InChI=1S/C27H30N4OS/c1-30-8-10-31(11-9-30)16-20-6-7-24-21(13-20)15-25-26(28-29-27(24)25)22-14-23(33-18-22)3-2-12-32-17-19-4-5-19/h6-7,13-14,18-19H,4-5,8-12,15-17H2,1H3,(H,28,29)

> <PUBCHEM_IUPAC_INCHIKEY>
UTQPKPHUIMHAAN-UHFFFAOYSA-N

> <PUBCHEM_XLOGP3_AA>
3.7

> <PUBCHEM_EXACT_MASS>
458.21403277

> <PUBCHEM_MOLECULAR_FORMULA>
C27H30N4OS

> <PUBCHEM_MOLECULAR_WEIGHT>
458.6

> <PUBCHEM_SMILES>
CN1CCN(CC1)CC2=CC3=C(C=C2)C4=C(C3)C(=NN4)C5=CSC(=C5)C#CCOCC6CC6

> <PUBCHEM_OPENEYE_CAN_SMILES>
CN1CCN(CC1)CC2=CC3=C(C=C2)C4=C(C3)C(=NN4)C5=CSC(=C5)C#CCOCC6CC6

> <PUBCHEM_OPENEYE_ISO_SMILES>
CN1CCN(CC1)CC2=CC3=C(C=C2)C4=C(C3)C(=NN4)C5=CSC(=C5)C#CCOCC6CC6

> <PUBCHEM_CACTVS_TPSA>
72.6

> <PUBCHEM_MONOISOTOPIC_WEIGHT>
458.21403277

> <PUBCHEM_TOTAL_CHARGE>
0

> <PUBCHEM_HEAVY_ATOM_COUNT>
33

> <PUBCHEM_ATOM_DEF_STEREO_COUNT>
0

> <PUBCHEM_ATOM_UDEF_STEREO_COUNT>
0

> <PUBCHEM_BOND_DEF_STEREO_COUNT>
0

> <PUBCHEM_BOND_UDEF_STEREO_COUNT>
0

> <PUBCHEM_ISOTOPIC_ATOM_COUNT>
0

> <PUBCHEM_COMPONENT_COUNT>
1

> <PUBCHEM_CACTVS_TAUTO_COUNT>
-1

> <PUBCHEM_COORDINATE_TYPE>
1
5
255

> <PUBCHEM_BONDANNOTATIONS>
1  31  8
1  32  8
16  19  8
16  22  8
17  22  8
17  23  8
19  24  8
20  21  8
20  26  8
23  24  8
28  30  8
28  31  8
30  32  8
5  21  8
5  6  8
6  26  8

$$$$
