44580077
  -OEChem-03202506392D

 67 72  0     0  0  0  0  0  0999 V2000
   11.6065   -1.6775    0.0000 O   0  0  0  0  0  0  0  0  0  0  0  0
    4.5981   -2.8728    0.0000 O   0  0  0  0  0  0  0  0  0  0  0  0
   12.5385    2.7835    0.0000 N   0  0  0  0  0  0  0  0  0  0  0  0
    2.8660    1.1272    0.0000 N   0  0  0  0  0  0  0  0  0  0  0  0
   12.1901   -0.8728    0.0000 N   0  0  0  0  0  0  0  0  0  0  0  0
    2.0000   -0.3728    0.0000 N   0  0  0  0  0  0  0  0  0  0  0  0
    5.4641   -1.3728    0.0000 N   0  0  0  0  0  0  0  0  0  0  0  0
   11.9171    0.8824    0.0000 C   0  0  0  0  0  0  0  0  0  0  0  0
   11.2493    1.6268    0.0000 C   0  0  0  0  0  0  0  0  0  0  0  0
   12.8956    1.0887    0.0000 C   0  0  0  0  0  0  0  0  0  0  0  0
   11.5600    2.5773    0.0000 C   0  0  0  0  0  0  0  0  0  0  0  0
   13.2063    2.0392    0.0000 C   0  0  0  0  0  0  0  0  0  0  0  0
   11.6065   -0.0681    0.0000 C   0  0  0  0  0  0  0  0  0  0  0  0
    3.3660    2.6660    0.0000 C   0  0  0  0  0  0  0  0  0  0  0  0
    2.3660    2.6660    0.0000 C   0  0  0  0  0  0  0  0  0  0  0  0
    3.6750    1.7150    0.0000 C   0  0  0  0  0  0  0  0  0  0  0  0
    2.0570    1.7150    0.0000 C   0  0  0  0  0  0  0  0  0  0  0  0
   10.6603   -0.3728    0.0000 C   0  0  0  0  0  0  0  0  0  0  0  0
   10.6603   -1.3728    0.0000 C   0  0  0  0  0  0  0  0  0  0  0  0
    2.8660    0.1272    0.0000 C   0  0  0  0  0  0  0  0  0  0  0  0
    9.7942    0.1272    0.0000 C   0  0  0  0  0  0  0  0  0  0  0  0
    9.7942   -1.8728    0.0000 C   0  0  0  0  0  0  0  0  0  0  0  0
    8.9282   -1.3728    0.0000 C   0  0  0  0  0  0  0  0  0  0  0  0
    8.9282   -0.3728    0.0000 C   0  0  0  0  0  0  0  0  0  0  0  0
    3.7320   -0.3728    0.0000 C   0  0  0  0  0  0  0  0  0  0  0  0
    8.0622   -1.8728    0.0000 C   0  0  0  0  0  0  0  0  0  0  0  0
    3.7320   -1.3728    0.0000 C   0  0  0  0  0  0  0  0  0  0  0  0
    8.0622   -2.8728    0.0000 C   0  0  0  0  0  0  0  0  0  0  0  0
    7.1962   -1.3728    0.0000 C   0  0  0  0  0  0  0  0  0  0  0  0
    6.3301   -1.8728    0.0000 C   0  0  0  0  0  0  0  0  0  0  0  0
    2.0000   -1.3728    0.0000 C   0  0  0  0  0  0  0  0  0  0  0  0
    2.8660   -1.8728    0.0000 C   0  0  0  0  0  0  0  0  0  0  0  0
    4.5981   -1.8728    0.0000 C   0  0  0  0  0  0  0  0  0  0  0  0
    7.1962   -3.3728    0.0000 C   0  0  0  0  0  0  0  0  0  0  0  0
    6.3301   -2.8728    0.0000 C   0  0  0  0  0  0  0  0  0  0  0  0
    8.9282   -3.3728    0.0000 C   0  0  0  0  0  0  0  0  0  0  0  0
   11.3105    0.7546    0.0000 H   0  0  0  0  0  0  0  0  0  0  0  0
   10.7024    1.9188    0.0000 H   0  0  0  0  0  0  0  0  0  0  0  0
   10.8667    1.1388    0.0000 H   0  0  0  0  0  0  0  0  0  0  0  0
   12.9162    0.4690    0.0000 H   0  0  0  0  0  0  0  0  0  0  0  0
   13.5095    1.0013    0.0000 H   0  0  0  0  0  0  0  0  0  0  0  0
   11.5394    3.1969    0.0000 H   0  0  0  0  0  0  0  0  0  0  0  0
   10.9461    2.6646    0.0000 H   0  0  0  0  0  0  0  0  0  0  0  0
   13.7532    1.7472    0.0000 H   0  0  0  0  0  0  0  0  0  0  0  0
   13.5889    2.5271    0.0000 H   0  0  0  0  0  0  0  0  0  0  0  0
   12.7311    3.3728    0.0000 H   0  0  0  0  0  0  0  0  0  0  0  0
    3.9725    2.7949    0.0000 H   0  0  0  0  0  0  0  0  0  0  0  0
    3.3012    3.2826    0.0000 H   0  0  0  0  0  0  0  0  0  0  0  0
    2.4308    3.2826    0.0000 H   0  0  0  0  0  0  0  0  0  0  0  0
    1.7596    2.7949    0.0000 H   0  0  0  0  0  0  0  0  0  0  0  0
    3.9850    1.1780    0.0000 H   0  0  0  0  0  0  0  0  0  0  0  0
    4.2414    1.9672    0.0000 H   0  0  0  0  0  0  0  0  0  0  0  0
    1.4906    1.9672    0.0000 H   0  0  0  0  0  0  0  0  0  0  0  0
    1.7470    1.1780    0.0000 H   0  0  0  0  0  0  0  0  0  0  0  0
    9.7942    0.7472    0.0000 H   0  0  0  0  0  0  0  0  0  0  0  0
    9.7942   -2.4928    0.0000 H   0  0  0  0  0  0  0  0  0  0  0  0
    8.3913   -0.0628    0.0000 H   0  0  0  0  0  0  0  0  0  0  0  0
    4.2690   -0.0628    0.0000 H   0  0  0  0  0  0  0  0  0  0  0  0
    7.1962   -0.7528    0.0000 H   0  0  0  0  0  0  0  0  0  0  0  0
    2.8660   -2.4928    0.0000 H   0  0  0  0  0  0  0  0  0  0  0  0
    1.4631   -1.6828    0.0000 H   0  0  0  0  0  0  0  0  0  0  0  0
    7.1962   -3.9928    0.0000 H   0  0  0  0  0  0  0  0  0  0  0  0
    5.4641   -0.7528    0.0000 H   0  0  0  0  0  0  0  0  0  0  0  0
    5.7932   -3.1828    0.0000 H   0  0  0  0  0  0  0  0  0  0  0  0
    8.6182   -3.9097    0.0000 H   0  0  0  0  0  0  0  0  0  0  0  0
    9.4651   -3.6828    0.0000 H   0  0  0  0  0  0  0  0  0  0  0  0
    9.2382   -2.8359    0.0000 H   0  0  0  0  0  0  0  0  0  0  0  0
  1  5  1  0  0  0  0
  1 19  1  0  0  0  0
  2 33  2  0  0  0  0
  3 11  1  0  0  0  0
  3 12  1  0  0  0  0
  3 46  1  0  0  0  0
  4 16  1  0  0  0  0
  4 17  1  0  0  0  0
  4 20  1  0  0  0  0
  5 13  2  0  0  0  0
  6 20  2  0  0  0  0
  6 31  1  0  0  0  0
  7 30  1  0  0  0  0
  7 33  1  0  0  0  0
  7 63  1  0  0  0  0
  8  9  1  0  0  0  0
  8 10  1  0  0  0  0
  8 13  1  0  0  0  0
  8 37  1  0  0  0  0
  9 11  1  0  0  0  0
  9 38  1  0  0  0  0
  9 39  1  0  0  0  0
 10 12  1  0  0  0  0
 10 40  1  0  0  0  0
 10 41  1  0  0  0  0
 11 42  1  0  0  0  0
 11 43  1  0  0  0  0
 12 44  1  0  0  0  0
 12 45  1  0  0  0  0
 13 18  1  0  0  0  0
 14 15  1  0  0  0  0
 14 16  1  0  0  0  0
 14 47  1  0  0  0  0
 14 48  1  0  0  0  0
 15 17  1  0  0  0  0
 15 49  1  0  0  0  0
 15 50  1  0  0  0  0
 16 51  1  0  0  0  0
 16 52  1  0  0  0  0
 17 53  1  0  0  0  0
 17 54  1  0  0  0  0
 18 19  2  0  0  0  0
 18 21  1  0  0  0  0
 19 22  1  0  0  0  0
 20 25  1  0  0  0  0
 21 24  2  0  0  0  0
 21 55  1  0  0  0  0
 22 23  2  0  0  0  0
 22 56  1  0  0  0  0
 23 24  1  0  0  0  0
 23 26  1  0  0  0  0
 24 57  1  0  0  0  0
 25 27  2  0  0  0  0
 25 58  1  0  0  0  0
 26 28  2  0  0  0  0
 26 29  1  0  0  0  0
 27 32  1  0  0  0  0
 27 33  1  0  0  0  0
 28 34  1  0  0  0  0
 28 36  1  0  0  0  0
 29 30  2  0  0  0  0
 29 59  1  0  0  0  0
 30 35  1  0  0  0  0
 31 32  2  0  0  0  0
 31 61  1  0  0  0  0
 32 60  1  0  0  0  0
 34 35  2  0  0  0  0
 34 62  1  0  0  0  0
 35 64  1  0  0  0  0
 36 65  1  0  0  0  0
 36 66  1  0  0  0  0
 36 67  1  0  0  0  0
M  END
> <PUBCHEM_COMPOUND_CID>
44580077

> <PUBCHEM_COMPOUND_CANONICALIZED>
1

> <PUBCHEM_CACTVS_COMPLEXITY>
739

> <PUBCHEM_CACTVS_HBOND_ACCEPTOR>
6

> <PUBCHEM_CACTVS_HBOND_DONOR>
2

> <PUBCHEM_CACTVS_ROTATABLE_BOND>
5

> <PUBCHEM_CACTVS_SUBSKEYS>
AAADceB7sAAAAAAAAAAAAAAAAAAAAWLAAAA8eIEAAAAAAFgB/AAAHgAUAAAADQzBngQ/9tPYEACpA7d3dgCCgCk1IiAp2KE+bNqIJvrAnZOEMYhu1BvIyeecyPCOyAABQAAYAACQAAKAADAAAAAAAAAAAA==

> <PUBCHEM_IUPAC_OPENEYE_NAME>
N-[4-methyl-3-[3-(4-piperidyl)-1,2-benzoxazol-6-yl]phenyl]-2-pyrrolidin-1-yl-pyridine-4-carboxamide

> <PUBCHEM_IUPAC_CAS_NAME>
N-[4-methyl-3-[3-(4-piperidinyl)-1,2-benzoxazol-6-yl]phenyl]-2-(1-pyrrolidinyl)-4-pyridinecarboxamide

> <PUBCHEM_IUPAC_NAME_MARKUP>
<I>N</I>-[4-methyl-3-(3-piperidin-4-yl-1,2-benzoxazol-6-yl)phenyl]-2-pyrrolidin-1-ylpyridine-4-carboxamide

> <PUBCHEM_IUPAC_NAME>
N-[4-methyl-3-(3-piperidin-4-yl-1,2-benzoxazol-6-yl)phenyl]-2-pyrrolidin-1-ylpyridine-4-carboxamide

> <PUBCHEM_IUPAC_SYSTEMATIC_NAME>
N-[4-methyl-3-(3-piperidin-4-yl-1,2-benzoxazol-6-yl)phenyl]-2-pyrrolidin-1-yl-pyridine-4-carboxamide

> <PUBCHEM_IUPAC_TRADITIONAL_NAME>
N-[4-methyl-3-[3-(4-piperidyl)indoxazen-6-yl]phenyl]-2-pyrrolidino-isonicotinamide

> <PUBCHEM_IUPAC_INCHI>
InChI=1S/C29H31N5O2/c1-19-4-6-23(32-29(35)22-10-13-31-27(17-22)34-14-2-3-15-34)18-25(19)21-5-7-24-26(16-21)36-33-28(24)20-8-11-30-12-9-20/h4-7,10,13,16-18,20,30H,2-3,8-9,11-12,14-15H2,1H3,(H,32,35)

> <PUBCHEM_IUPAC_INCHIKEY>
DMTJDVSGJMJVRQ-UHFFFAOYSA-N

> <PUBCHEM_XLOGP3_AA>
4.6

> <PUBCHEM_EXACT_MASS>
481.24777525

> <PUBCHEM_MOLECULAR_FORMULA>
C29H31N5O2

> <PUBCHEM_MOLECULAR_WEIGHT>
481.6

> <PUBCHEM_SMILES>
CC1=C(C=C(C=C1)NC(=O)C2=CC(=NC=C2)N3CCCC3)C4=CC5=C(C=C4)C(=NO5)C6CCNCC6

> <PUBCHEM_OPENEYE_CAN_SMILES>
CC1=C(C=C(C=C1)NC(=O)C2=CC(=NC=C2)N3CCCC3)C4=CC5=C(C=C4)C(=NO5)C6CCNCC6

> <PUBCHEM_OPENEYE_ISO_SMILES>
CC1=C(C=C(C=C1)NC(=O)C2=CC(=NC=C2)N3CCCC3)C4=CC5=C(C=C4)C(=NO5)C6CCNCC6

> <PUBCHEM_CACTVS_TPSA>
83.3

> <PUBCHEM_MONOISOTOPIC_WEIGHT>
481.24777525

> <PUBCHEM_TOTAL_CHARGE>
0

> <PUBCHEM_HEAVY_ATOM_COUNT>
36

> <PUBCHEM_ATOM_DEF_STEREO_COUNT>
0

> <PUBCHEM_ATOM_UDEF_STEREO_COUNT>
0

> <PUBCHEM_BOND_DEF_STEREO_COUNT>
0

> <PUBCHEM_BOND_UDEF_STEREO_COUNT>
0

> <PUBCHEM_ISOTOPIC_ATOM_COUNT>
0

> <PUBCHEM_COMPONENT_COUNT>
1

> <PUBCHEM_CACTVS_TAUTO_COUNT>
-1

> <PUBCHEM_COORDINATE_TYPE>
1
5
255

> <PUBCHEM_BONDANNOTATIONS>
1  19  8
1  5  8
13  18  8
18  19  8
18  21  8
19  22  8
20  25  8
21  24  8
22  23  8
23  24  8
25  27  8
26  28  8
26  29  8
27  32  8
28  34  8
29  30  8
30  35  8
31  32  8
34  35  8
5  13  8
6  20  8
6  31  8

$$$$
