44410844
  -OEChem-03202506212D

 47 50  0     0  0  0  0  0  0999 V2000
   11.3930   -1.0474    0.0000 Cl  0  0  0  0  0  0  0  0  0  0  0  0
    9.6727   -0.0274    0.0000 F   0  0  0  0  0  0  0  0  0  0  0  0
    4.4487    2.0272    0.0000 O   0  0  0  0  0  0  0  0  0  0  0  0
    3.5827    0.5272    0.0000 N   0  0  0  0  0  0  0  0  0  0  0  0
    7.9407    2.0619    0.0000 N   0  0  0  0  0  0  0  0  0  0  0  0
    7.9292   -1.0074    0.0000 N   0  0  0  0  0  0  0  0  0  0  0  0
    8.8468    0.5064    0.0000 N   0  0  0  0  0  0  0  0  0  0  0  0
    3.4782    1.5218    0.0000 C   0  0  0  0  0  0  0  0  0  0  0  0
    2.6691    0.1205    0.0000 C   0  0  0  0  0  0  0  0  0  0  0  0
    2.5000    1.7297    0.0000 C   0  0  0  0  0  0  0  0  0  0  0  0
    2.0000    0.8637    0.0000 C   0  0  0  0  0  0  0  0  0  0  0  0
    4.4487    0.0272    0.0000 C   0  0  0  0  0  0  0  0  0  0  0  0
    5.3147    0.5272    0.0000 C   0  0  0  0  0  0  0  0  0  0  0  0
    6.1808    0.0272    0.0000 C   0  0  0  0  0  0  0  0  0  0  0  0
    5.3147    1.5272    0.0000 C   0  0  0  0  0  0  0  0  0  0  0  0
    7.0468    0.5272    0.0000 C   0  0  0  0  0  0  0  0  0  0  0  0
    6.1808    2.0272    0.0000 C   0  0  0  0  0  0  0  0  0  0  0  0
    7.0468    1.5272    0.0000 C   0  0  0  0  0  0  0  0  0  0  0  0
    7.9407   -0.0074    0.0000 C   0  0  0  0  0  0  0  0  0  0  0  0
    8.8468    1.5481    0.0000 C   0  0  0  0  0  0  0  0  0  0  0  0
    4.4487    3.0272    0.0000 C   0  0  0  0  0  0  0  0  0  0  0  0
    8.7893   -1.5173    0.0000 C   0  0  0  0  0  0  0  0  0  0  0  0
    9.6611   -1.0274    0.0000 C   0  0  0  0  0  0  0  0  0  0  0  0
    8.7778   -2.5173    0.0000 C   0  0  0  0  0  0  0  0  0  0  0  0
   10.5213   -1.5374    0.0000 C   0  0  0  0  0  0  0  0  0  0  0  0
    9.6380   -3.0272    0.0000 C   0  0  0  0  0  0  0  0  0  0  0  0
   10.5097   -2.5373    0.0000 C   0  0  0  0  0  0  0  0  0  0  0  0
    4.0982    1.5218    0.0000 H   0  0  0  0  0  0  0  0  0  0  0  0
    3.5430    2.1384    0.0000 H   0  0  0  0  0  0  0  0  0  0  0  0
    2.1675   -0.2439    0.0000 H   0  0  0  0  0  0  0  0  0  0  0  0
    2.9791   -0.4164    0.0000 H   0  0  0  0  0  0  0  0  0  0  0  0
    2.6916    2.3193    0.0000 H   0  0  0  0  0  0  0  0  0  0  0  0
    1.9336    1.9818    0.0000 H   0  0  0  0  0  0  0  0  0  0  0  0
    1.4984    1.2281    0.0000 H   0  0  0  0  0  0  0  0  0  0  0  0
    1.5851    0.4029    0.0000 H   0  0  0  0  0  0  0  0  0  0  0  0
    4.0502   -0.4477    0.0000 H   0  0  0  0  0  0  0  0  0  0  0  0
    4.8472   -0.4477    0.0000 H   0  0  0  0  0  0  0  0  0  0  0  0
    6.1808   -0.5928    0.0000 H   0  0  0  0  0  0  0  0  0  0  0  0
    6.1808    2.6472    0.0000 H   0  0  0  0  0  0  0  0  0  0  0  0
    7.3887   -1.3111    0.0000 H   0  0  0  0  0  0  0  0  0  0  0  0
    9.3825    1.8601    0.0000 H   0  0  0  0  0  0  0  0  0  0  0  0
    5.0687    3.0272    0.0000 H   0  0  0  0  0  0  0  0  0  0  0  0
    4.4487    3.6472    0.0000 H   0  0  0  0  0  0  0  0  0  0  0  0
    3.8287    3.0272    0.0000 H   0  0  0  0  0  0  0  0  0  0  0  0
    8.2373   -2.8210    0.0000 H   0  0  0  0  0  0  0  0  0  0  0  0
    9.6308   -3.6472    0.0000 H   0  0  0  0  0  0  0  0  0  0  0  0
   11.0430   -2.8535    0.0000 H   0  0  0  0  0  0  0  0  0  0  0  0
  1 25  1  0  0  0  0
  2 23  1  0  0  0  0
  3 15  1  0  0  0  0
  3 21  1  0  0  0  0
  4  8  1  0  0  0  0
  4  9  1  0  0  0  0
  4 12  1  0  0  0  0
  5 18  1  0  0  0  0
  5 20  2  0  0  0  0
  6 19  1  0  0  0  0
  6 22  1  0  0  0  0
  6 40  1  0  0  0  0
  7 19  2  0  0  0  0
  7 20  1  0  0  0  0
  8 10  1  0  0  0  0
  8 28  1  0  0  0  0
  8 29  1  0  0  0  0
  9 11  1  0  0  0  0
  9 30  1  0  0  0  0
  9 31  1  0  0  0  0
 10 11  1  0  0  0  0
 10 32  1  0  0  0  0
 10 33  1  0  0  0  0
 11 34  1  0  0  0  0
 11 35  1  0  0  0  0
 12 13  1  0  0  0  0
 12 36  1  0  0  0  0
 12 37  1  0  0  0  0
 13 14  2  0  0  0  0
 13 15  1  0  0  0  0
 14 16  1  0  0  0  0
 14 38  1  0  0  0  0
 15 17  2  0  0  0  0
 16 18  2  0  0  0  0
 16 19  1  0  0  0  0
 17 18  1  0  0  0  0
 17 39  1  0  0  0  0
 20 41  1  0  0  0  0
 21 42  1  0  0  0  0
 21 43  1  0  0  0  0
 21 44  1  0  0  0  0
 22 23  2  0  0  0  0
 22 24  1  0  0  0  0
 23 25  1  0  0  0  0
 24 26  2  0  0  0  0
 24 45  1  0  0  0  0
 25 27  2  0  0  0  0
 26 27  1  0  0  0  0
 26 46  1  0  0  0  0
 27 47  1  0  0  0  0
M  END
> <PUBCHEM_COMPOUND_CID>
44410844

> <PUBCHEM_COMPOUND_CANONICALIZED>
1

> <PUBCHEM_CACTVS_COMPLEXITY>
481

> <PUBCHEM_CACTVS_HBOND_ACCEPTOR>
6

> <PUBCHEM_CACTVS_HBOND_DONOR>
1

> <PUBCHEM_CACTVS_ROTATABLE_BOND>
5

> <PUBCHEM_CACTVS_SUBSKEYS>
AAADceB7oQAEAAAAAAAAAAAAAAAAAWAAAAA8YIAAAAAAAACx9AAAHwIQAAAADA7Bni439vfIFACgAyZjZACCiCkxJ6AJ2CA+bpiMLuLF+9uENChu0BvI6CeQ0GMOKAACAgIKAABQAAQEBBQAAAAAAAAAAA==

> <PUBCHEM_IUPAC_OPENEYE_NAME>
N-(3-chloro-2-fluoro-phenyl)-7-methoxy-6-(pyrrolidin-1-ylmethyl)quinazolin-4-amine

> <PUBCHEM_IUPAC_CAS_NAME>
N-(3-chloro-2-fluorophenyl)-7-methoxy-6-(1-pyrrolidinylmethyl)-4-quinazolinamine

> <PUBCHEM_IUPAC_NAME_MARKUP>
<I>N</I>-(3-chloro-2-fluorophenyl)-7-methoxy-6-(pyrrolidin-1-ylmethyl)quinazolin-4-amine

> <PUBCHEM_IUPAC_NAME>
N-(3-chloro-2-fluorophenyl)-7-methoxy-6-(pyrrolidin-1-ylmethyl)quinazolin-4-amine

> <PUBCHEM_IUPAC_SYSTEMATIC_NAME>
N-(3-chloranyl-2-fluoranyl-phenyl)-7-methoxy-6-(pyrrolidin-1-ylmethyl)quinazolin-4-amine

> <PUBCHEM_IUPAC_TRADITIONAL_NAME>
(3-chloro-2-fluoro-phenyl)-[7-methoxy-6-(pyrrolidinomethyl)quinazolin-4-yl]amine

> <PUBCHEM_IUPAC_INCHI>
InChI=1S/C20H20ClFN4O/c1-27-18-10-17-14(9-13(18)11-26-7-2-3-8-26)20(24-12-23-17)25-16-6-4-5-15(21)19(16)22/h4-6,9-10,12H,2-3,7-8,11H2,1H3,(H,23,24,25)

> <PUBCHEM_IUPAC_INCHIKEY>
QAAOTANJKRXNSC-UHFFFAOYSA-N

> <PUBCHEM_XLOGP3_AA>
4.4

> <PUBCHEM_EXACT_MASS>
386.1309671

> <PUBCHEM_MOLECULAR_FORMULA>
C20H20ClFN4O

> <PUBCHEM_MOLECULAR_WEIGHT>
386.8

> <PUBCHEM_SMILES>
COC1=CC2=C(C=C1CN3CCCC3)C(=NC=N2)NC4=C(C(=CC=C4)Cl)F

> <PUBCHEM_OPENEYE_CAN_SMILES>
COC1=CC2=C(C=C1CN3CCCC3)C(=NC=N2)NC4=C(C(=CC=C4)Cl)F

> <PUBCHEM_OPENEYE_ISO_SMILES>
COC1=CC2=C(C=C1CN3CCCC3)C(=NC=N2)NC4=C(C(=CC=C4)Cl)F

> <PUBCHEM_CACTVS_TPSA>
50.3

> <PUBCHEM_MONOISOTOPIC_WEIGHT>
386.1309671

> <PUBCHEM_TOTAL_CHARGE>
0

> <PUBCHEM_HEAVY_ATOM_COUNT>
27

> <PUBCHEM_ATOM_DEF_STEREO_COUNT>
0

> <PUBCHEM_ATOM_UDEF_STEREO_COUNT>
0

> <PUBCHEM_BOND_DEF_STEREO_COUNT>
0

> <PUBCHEM_BOND_UDEF_STEREO_COUNT>
0

> <PUBCHEM_ISOTOPIC_ATOM_COUNT>
0

> <PUBCHEM_COMPONENT_COUNT>
1

> <PUBCHEM_CACTVS_TAUTO_COUNT>
-1

> <PUBCHEM_COORDINATE_TYPE>
1
5
255

> <PUBCHEM_BONDANNOTATIONS>
13  14  8
13  15  8
14  16  8
15  17  8
16  18  8
16  19  8
17  18  8
22  23  8
22  24  8
23  25  8
24  26  8
25  27  8
26  27  8
5  18  8
5  20  8
7  19  8
7  20  8

$$$$
