44403669
  -OEChem-03202505482D

 64 67  0     1  0  0  0  0  0999 V2000
    4.3802   -1.7180    0.0000 O   0  0  0  0  0  0  0  0  0  0  0  0
    5.1906   -5.1328    0.0000 O   0  0  0  0  0  0  0  0  0  0  0  0
    3.0261   -0.6381    0.0000 O   0  0  0  0  0  0  0  0  0  0  0  0
    9.6906   -4.2668    0.0000 O   0  0  0  0  0  0  0  0  0  0  0  0
    7.4977    2.1912    0.0000 O   0  0  0  0  0  0  0  0  0  0  0  0
    4.5312    2.6383    0.0000 O   0  0  0  0  0  0  0  0  0  0  0  0
    8.3793    4.6857    0.0000 O   0  0  0  0  0  0  0  0  0  0  0  0
    8.1212    2.9730    0.0000 O   0  0  0  0  0  0  0  0  0  0  0  0
    2.7818   -4.5243    0.0000 N   0  0  0  0  0  0  0  0  0  0  0  0
    5.1906   -3.4008    0.0000 N   0  0  0  0  0  0  0  0  0  0  0  0
    4.1906   -3.4008    0.0000 C   0  0  1  0  0  0  0  0  0  0  0  0
    3.7568   -2.4998    0.0000 C   0  0  1  0  0  0  0  0  0  0  0  0
    2.7818   -2.2773    0.0000 C   0  0  0  0  0  0  0  0  0  0  0  0
    3.7568   -4.3018    0.0000 C   0  0  0  0  0  0  0  0  0  0  0  0
    2.0000   -2.9008    0.0000 C   0  0  0  0  0  0  0  0  0  0  0  0
    2.0000   -3.9008    0.0000 C   0  0  0  0  0  0  0  0  0  0  0  0
    5.6906   -4.2668    0.0000 C   0  0  0  0  0  0  0  0  0  0  0  0
    4.0149   -0.7871    0.0000 C   0  0  0  0  0  0  0  0  0  0  0  0
    6.6906   -4.2668    0.0000 C   0  0  0  0  0  0  0  0  0  0  0  0
    4.6384   -0.0053    0.0000 C   0  0  0  0  0  0  0  0  0  0  0  0
    7.1906   -3.4008    0.0000 C   0  0  0  0  0  0  0  0  0  0  0  0
    7.1906   -5.1328    0.0000 C   0  0  0  0  0  0  0  0  0  0  0  0
    5.6272   -0.1543    0.0000 C   0  0  0  0  0  0  0  0  0  0  0  0
    4.2731    0.9256    0.0000 C   0  0  0  0  0  0  0  0  0  0  0  0
    5.8854    1.5584    0.0000 C   0  0  0  0  0  0  0  0  0  0  0  0
    6.2507    0.6275    0.0000 C   0  0  0  0  0  0  0  0  0  0  0  0
    4.8966    1.7074    0.0000 C   0  0  0  0  0  0  0  0  0  0  0  0
    8.1906   -3.4008    0.0000 C   0  0  0  0  0  0  0  0  0  0  0  0
    8.1906   -5.1328    0.0000 C   0  0  0  0  0  0  0  0  0  0  0  0
    8.6906   -4.2668    0.0000 C   0  0  0  0  0  0  0  0  0  0  0  0
    6.5089    2.3402    0.0000 C   0  0  0  0  0  0  0  0  0  0  0  0
    6.1435    3.2711    0.0000 C   0  0  0  0  0  0  0  0  0  0  0  0
    6.7670    4.0529    0.0000 C   0  0  0  0  0  0  0  0  0  0  0  0
    5.1547    3.4201    0.0000 C   0  0  0  0  0  0  0  0  0  0  0  0
    6.4017    4.9838    0.0000 C   0  0  0  0  0  0  0  0  0  0  0  0
    4.7894    4.3510    0.0000 C   0  0  0  0  0  0  0  0  0  0  0  0
    5.4128    5.1328    0.0000 C   0  0  0  0  0  0  0  0  0  0  0  0
    7.7558    3.9039    0.0000 C   0  0  0  0  0  0  0  0  0  0  0  0
    4.5205   -3.9258    0.0000 H   0  0  0  0  0  0  0  0  0  0  0  0
    4.3729   -2.5692    0.0000 H   0  0  0  0  0  0  0  0  0  0  0  0
    3.0508   -1.7187    0.0000 H   0  0  0  0  0  0  0  0  0  0  0  0
    2.2971   -1.8907    0.0000 H   0  0  0  0  0  0  0  0  0  0  0  0
    3.7568   -4.9218    0.0000 H   0  0  0  0  0  0  0  0  0  0  0  0
    4.3612   -4.4397    0.0000 H   0  0  0  0  0  0  0  0  0  0  0  0
    1.7310   -2.3422    0.0000 H   0  0  0  0  0  0  0  0  0  0  0  0
    1.3955   -3.0388    0.0000 H   0  0  0  0  0  0  0  0  0  0  0  0
    1.3955   -3.7628    0.0000 H   0  0  0  0  0  0  0  0  0  0  0  0
    1.7310   -4.4594    0.0000 H   0  0  0  0  0  0  0  0  0  0  0  0
    2.6439   -5.1287    0.0000 H   0  0  0  0  0  0  0  0  0  0  0  0
    5.5006   -2.8638    0.0000 H   0  0  0  0  0  0  0  0  0  0  0  0
    6.8806   -2.8638    0.0000 H   0  0  0  0  0  0  0  0  0  0  0  0
    6.8806   -5.6698    0.0000 H   0  0  0  0  0  0  0  0  0  0  0  0
    5.8537   -0.7315    0.0000 H   0  0  0  0  0  0  0  0  0  0  0  0
    3.6600    1.0180    0.0000 H   0  0  0  0  0  0  0  0  0  0  0  0
    6.8638    0.5351    0.0000 H   0  0  0  0  0  0  0  0  0  0  0  0
    4.6700    2.2846    0.0000 H   0  0  0  0  0  0  0  0  0  0  0  0
    8.5006   -2.8638    0.0000 H   0  0  0  0  0  0  0  0  0  0  0  0
    8.5006   -5.6698    0.0000 H   0  0  0  0  0  0  0  0  0  0  0  0
   10.0006   -4.8038    0.0000 H   0  0  0  0  0  0  0  0  0  0  0  0
    6.7882    5.4685    0.0000 H   0  0  0  0  0  0  0  0  0  0  0  0
    4.1763    4.4434    0.0000 H   0  0  0  0  0  0  0  0  0  0  0  0
    5.1863    5.7100    0.0000 H   0  0  0  0  0  0  0  0  0  0  0  0
    3.9181    2.7307    0.0000 H   0  0  0  0  0  0  0  0  0  0  0  0
    8.9924    4.5933    0.0000 H   0  0  0  0  0  0  0  0  0  0  0  0
 12  1  1  1  0  0  0
  1 18  1  0  0  0  0
  2 17  2  0  0  0  0
  3 18  2  0  0  0  0
  4 30  1  0  0  0  0
  4 59  1  0  0  0  0
  5 31  2  0  0  0  0
  6 34  1  0  0  0  0
  6 63  1  0  0  0  0
  7 38  1  0  0  0  0
  7 64  1  0  0  0  0
  8 38  2  0  0  0  0
  9 14  1  0  0  0  0
  9 16  1  0  0  0  0
  9 49  1  0  0  0  0
 11 10  1  6  0  0  0
 10 17  1  0  0  0  0
 10 50  1  0  0  0  0
 11 12  1  0  0  0  0
 11 14  1  0  0  0  0
 11 39  1  0  0  0  0
 12 13  1  0  0  0  0
 12 40  1  0  0  0  0
 13 15  1  0  0  0  0
 13 41  1  0  0  0  0
 13 42  1  0  0  0  0
 14 43  1  0  0  0  0
 14 44  1  0  0  0  0
 15 16  1  0  0  0  0
 15 45  1  0  0  0  0
 15 46  1  0  0  0  0
 16 47  1  0  0  0  0
 16 48  1  0  0  0  0
 17 19  1  0  0  0  0
 18 20  1  0  0  0  0
 19 21  2  0  0  0  0
 19 22  1  0  0  0  0
 20 23  2  0  0  0  0
 20 24  1  0  0  0  0
 21 28  1  0  0  0  0
 21 51  1  0  0  0  0
 22 29  2  0  0  0  0
 22 52  1  0  0  0  0
 23 26  1  0  0  0  0
 23 53  1  0  0  0  0
 24 27  2  0  0  0  0
 24 54  1  0  0  0  0
 25 26  2  0  0  0  0
 25 27  1  0  0  0  0
 25 31  1  0  0  0  0
 26 55  1  0  0  0  0
 27 56  1  0  0  0  0
 28 30  2  0  0  0  0
 28 57  1  0  0  0  0
 29 30  1  0  0  0  0
 29 58  1  0  0  0  0
 31 32  1  0  0  0  0
 32 33  2  0  0  0  0
 32 34  1  0  0  0  0
 33 35  1  0  0  0  0
 33 38  1  0  0  0  0
 34 36  2  0  0  0  0
 35 37  2  0  0  0  0
 35 60  1  0  0  0  0
 36 37  1  0  0  0  0
 36 61  1  0  0  0  0
 37 62  1  0  0  0  0
M  END
> <PUBCHEM_COMPOUND_CID>
44403669

> <PUBCHEM_COMPOUND_CANONICALIZED>
1

> <PUBCHEM_CACTVS_COMPLEXITY>
850

> <PUBCHEM_CACTVS_HBOND_ACCEPTOR>
9

> <PUBCHEM_CACTVS_HBOND_DONOR>
5

> <PUBCHEM_CACTVS_ROTATABLE_BOND>
8

> <PUBCHEM_CACTVS_SUBSKEYS>
AAADceB7PAAAAAAAAAAAAAAAAAAAAAAAAAAwYMAABYAAAAABUAAAHgAQCAAADDzhmAYwDoLABgCIAqHSGACCAAAkIAAIiIEODMgKZjaCtRuXcUhm9hGYuYf73PLO4AABAAAYAADAAAIAADAAAAAAAAAAAA==

> <PUBCHEM_IUPAC_OPENEYE_NAME>
3-hydroxy-2-[4-[(3R,4R)-3-[(4-hydroxybenzoyl)amino]azepan-4-yl]oxycarbonylbenzoyl]benzoic acid

> <PUBCHEM_IUPAC_CAS_NAME>
3-hydroxy-2-[[4-[[(3R,4R)-3-[[(4-hydroxyphenyl)-oxomethyl]amino]-4-azepanyl]oxy-oxomethyl]phenyl]-oxomethyl]benzoic acid

> <PUBCHEM_IUPAC_NAME_MARKUP>
3-hydroxy-2-[4-[(3<I>R</I>,4<I>R</I>)-3-[(4-hydroxybenzoyl)amino]azepan-4-yl]oxycarbonylbenzoyl]benzoic acid

> <PUBCHEM_IUPAC_NAME>
3-hydroxy-2-[4-[(3R,4R)-3-[(4-hydroxybenzoyl)amino]azepan-4-yl]oxycarbonylbenzoyl]benzoic acid

> <PUBCHEM_IUPAC_SYSTEMATIC_NAME>
2-[4-[(3R,4R)-3-[(4-hydroxyphenyl)carbonylamino]azepan-4-yl]oxycarbonylphenyl]carbonyl-3-oxidanyl-benzoic acid

> <PUBCHEM_IUPAC_TRADITIONAL_NAME>
3-hydroxy-2-[4-[(3R,4R)-3-[(4-hydroxybenzoyl)amino]azepan-4-yl]oxycarbonylbenzoyl]benzoic acid

> <PUBCHEM_IUPAC_INCHI>
InChI=1S/C28H26N2O8/c31-19-12-10-17(11-13-19)26(34)30-21-15-29-14-2-5-23(21)38-28(37)18-8-6-16(7-9-18)25(33)24-20(27(35)36)3-1-4-22(24)32/h1,3-4,6-13,21,23,29,31-32H,2,5,14-15H2,(H,30,34)(H,35,36)/t21-,23-/m1/s1

> <PUBCHEM_IUPAC_INCHIKEY>
OFPFIAWWDTYSBZ-FYYLOGMGSA-N

> <PUBCHEM_XLOGP3_AA>
1.4

> <PUBCHEM_EXACT_MASS>
518.16891579

> <PUBCHEM_MOLECULAR_FORMULA>
C28H26N2O8

> <PUBCHEM_MOLECULAR_WEIGHT>
518.5

> <PUBCHEM_SMILES>
C1C[C@H]([C@@H](CNC1)NC(=O)C2=CC=C(C=C2)O)OC(=O)C3=CC=C(C=C3)C(=O)C4=C(C=CC=C4O)C(=O)O

> <PUBCHEM_OPENEYE_CAN_SMILES>
C1CC(C(CNC1)NC(=O)C2=CC=C(C=C2)O)OC(=O)C3=CC=C(C=C3)C(=O)C4=C(C=CC=C4O)C(=O)O

> <PUBCHEM_OPENEYE_ISO_SMILES>
C1C[C@H]([C@@H](CNC1)NC(=O)C2=CC=C(C=C2)O)OC(=O)C3=CC=C(C=C3)C(=O)C4=C(C=CC=C4O)C(=O)O

> <PUBCHEM_CACTVS_TPSA>
162

> <PUBCHEM_MONOISOTOPIC_WEIGHT>
518.16891579

> <PUBCHEM_TOTAL_CHARGE>
0

> <PUBCHEM_HEAVY_ATOM_COUNT>
38

> <PUBCHEM_ATOM_DEF_STEREO_COUNT>
2

> <PUBCHEM_ATOM_UDEF_STEREO_COUNT>
0

> <PUBCHEM_BOND_DEF_STEREO_COUNT>
0

> <PUBCHEM_BOND_UDEF_STEREO_COUNT>
0

> <PUBCHEM_ISOTOPIC_ATOM_COUNT>
0

> <PUBCHEM_COMPONENT_COUNT>
1

> <PUBCHEM_CACTVS_TAUTO_COUNT>
-1

> <PUBCHEM_COORDINATE_TYPE>
1
5
255

> <PUBCHEM_BONDANNOTATIONS>
12  1  5
11  10  6
19  21  8
19  22  8
20  23  8
20  24  8
21  28  8
22  29  8
23  26  8
24  27  8
25  26  8
25  27  8
28  30  8
29  30  8
32  33  8
32  34  8
33  35  8
34  36  8
35  37  8
36  37  8

$$$$
