44593713
  -OEChem-03202506392D

 63 66  0     0  0  0  0  0  0999 V2000
    4.5981   -0.6418    0.0000 O   0  0  0  0  0  0  0  0  0  0  0  0
    9.9404    2.5144    0.0000 O   0  0  0  0  0  0  0  0  0  0  0  0
   10.5920   -2.8739    0.0000 O   0  0  0  0  0  0  0  0  0  0  0  0
    5.4641   -2.1418    0.0000 N   0  0  0  0  0  0  0  0  0  0  0  0
    9.0084   -0.3371    0.0000 N   0  0  0  0  0  0  0  0  0  0  0  0
    9.0084   -1.9466    0.0000 N   0  0  0  0  0  0  0  0  0  0  0  0
   10.5920   -1.1418    0.0000 N   0  0  0  0  0  0  0  0  0  0  0  0
    8.2940    3.0525    0.0000 N   0  0  0  0  0  0  0  0  0  0  0  0
   16.0920   -2.0079    0.0000 N   0  0  0  0  0  0  0  0  0  0  0  0
    3.7320   -2.1418    0.0000 C   0  0  0  0  0  0  0  0  0  0  0  0
    2.8660   -1.6418    0.0000 C   0  0  0  0  0  0  0  0  0  0  0  0
    3.7320   -3.1418    0.0000 C   0  0  0  0  0  0  0  0  0  0  0  0
    2.0000   -2.1418    0.0000 C   0  0  0  0  0  0  0  0  0  0  0  0
    2.8660   -3.6418    0.0000 C   0  0  0  0  0  0  0  0  0  0  0  0
    2.0000   -3.1418    0.0000 C   0  0  0  0  0  0  0  0  0  0  0  0
    4.5981   -1.6418    0.0000 C   0  0  0  0  0  0  0  0  0  0  0  0
    6.3301   -1.6418    0.0000 C   0  0  0  0  0  0  0  0  0  0  0  0
    5.4641   -3.1418    0.0000 C   0  0  0  0  0  0  0  0  0  0  0  0
    8.0622   -0.6418    0.0000 C   0  0  0  0  0  0  0  0  0  0  0  0
    7.1962   -2.1418    0.0000 C   0  0  0  0  0  0  0  0  0  0  0  0
    8.0622   -1.6418    0.0000 C   0  0  0  0  0  0  0  0  0  0  0  0
    6.3301   -0.6418    0.0000 C   0  0  0  0  0  0  0  0  0  0  0  0
    7.1962   -0.1418    0.0000 C   0  0  0  0  0  0  0  0  0  0  0  0
    9.3191    0.6134    0.0000 C   0  0  0  0  0  0  0  0  0  0  0  0
    9.5920   -1.1418    0.0000 C   0  0  0  0  0  0  0  0  0  0  0  0
    8.6512    1.3577    0.0000 C   0  0  0  0  0  0  0  0  0  0  0  0
    8.9619    2.3082    0.0000 C   0  0  0  0  0  0  0  0  0  0  0  0
   11.0920   -2.0079    0.0000 C   0  0  0  0  0  0  0  0  0  0  0  0
   12.0920   -2.0079    0.0000 C   0  0  0  0  0  0  0  0  0  0  0  0
   12.5920   -2.8739    0.0000 C   0  0  0  0  0  0  0  0  0  0  0  0
   12.5920   -1.1418    0.0000 C   0  0  0  0  0  0  0  0  0  0  0  0
   13.5920   -2.8739    0.0000 C   0  0  0  0  0  0  0  0  0  0  0  0
   13.5920   -1.1418    0.0000 C   0  0  0  0  0  0  0  0  0  0  0  0
   14.0920   -2.0079    0.0000 C   0  0  0  0  0  0  0  0  0  0  0  0
   15.0920   -2.0079    0.0000 C   0  0  0  0  0  0  0  0  0  0  0  0
    4.2690   -2.4518    0.0000 H   0  0  0  0  0  0  0  0  0  0  0  0
    3.2646   -1.1669    0.0000 H   0  0  0  0  0  0  0  0  0  0  0  0
    2.4675   -1.1669    0.0000 H   0  0  0  0  0  0  0  0  0  0  0  0
    3.9441   -3.7245    0.0000 H   0  0  0  0  0  0  0  0  0  0  0  0
    4.3426   -3.0342    0.0000 H   0  0  0  0  0  0  0  0  0  0  0  0
    1.7880   -1.5592    0.0000 H   0  0  0  0  0  0  0  0  0  0  0  0
    1.3894   -2.2495    0.0000 H   0  0  0  0  0  0  0  0  0  0  0  0
    2.4675   -4.1168    0.0000 H   0  0  0  0  0  0  0  0  0  0  0  0
    3.2646   -4.1168    0.0000 H   0  0  0  0  0  0  0  0  0  0  0  0
    1.3894   -3.0342    0.0000 H   0  0  0  0  0  0  0  0  0  0  0  0
    1.7880   -3.7245    0.0000 H   0  0  0  0  0  0  0  0  0  0  0  0
    4.8441   -3.1418    0.0000 H   0  0  0  0  0  0  0  0  0  0  0  0
    5.4641   -3.7618    0.0000 H   0  0  0  0  0  0  0  0  0  0  0  0
    6.0841   -3.1418    0.0000 H   0  0  0  0  0  0  0  0  0  0  0  0
    7.1962   -2.7618    0.0000 H   0  0  0  0  0  0  0  0  0  0  0  0
    5.7932   -0.3318    0.0000 H   0  0  0  0  0  0  0  0  0  0  0  0
    7.1962    0.4782    0.0000 H   0  0  0  0  0  0  0  0  0  0  0  0
    9.8660    0.3214    0.0000 H   0  0  0  0  0  0  0  0  0  0  0  0
    9.7016    1.1013    0.0000 H   0  0  0  0  0  0  0  0  0  0  0  0
    8.1043    1.6497    0.0000 H   0  0  0  0  0  0  0  0  0  0  0  0
    8.2687    0.8698    0.0000 H   0  0  0  0  0  0  0  0  0  0  0  0
   10.9020   -0.6049    0.0000 H   0  0  0  0  0  0  0  0  0  0  0  0
    8.4866    3.6418    0.0000 H   0  0  0  0  0  0  0  0  0  0  0  0
    7.6874    2.9247    0.0000 H   0  0  0  0  0  0  0  0  0  0  0  0
   12.2820   -3.4108    0.0000 H   0  0  0  0  0  0  0  0  0  0  0  0
   12.2820   -0.6049    0.0000 H   0  0  0  0  0  0  0  0  0  0  0  0
   13.9020   -3.4108    0.0000 H   0  0  0  0  0  0  0  0  0  0  0  0
   13.9020   -0.6049    0.0000 H   0  0  0  0  0  0  0  0  0  0  0  0
  1 16  2  0  0  0  0
  2 27  2  0  0  0  0
  3 28  2  0  0  0  0
  4 16  1  0  0  0  0
  4 17  1  0  0  0  0
  4 18  1  0  0  0  0
  5 19  1  0  0  0  0
  5 24  1  0  0  0  0
  5 25  1  0  0  0  0
  6 21  1  0  0  0  0
  6 25  2  0  0  0  0
  7 25  1  0  0  0  0
  7 28  1  0  0  0  0
  7 57  1  0  0  0  0
  8 27  1  0  0  0  0
  8 58  1  0  0  0  0
  8 59  1  0  0  0  0
  9 35  3  0  0  0  0
 10 11  1  0  0  0  0
 10 12  1  0  0  0  0
 10 16  1  0  0  0  0
 10 36  1  0  0  0  0
 11 13  1  0  0  0  0
 11 37  1  0  0  0  0
 11 38  1  0  0  0  0
 12 14  1  0  0  0  0
 12 39  1  0  0  0  0
 12 40  1  0  0  0  0
 13 15  1  0  0  0  0
 13 41  1  0  0  0  0
 13 42  1  0  0  0  0
 14 15  1  0  0  0  0
 14 43  1  0  0  0  0
 14 44  1  0  0  0  0
 15 45  1  0  0  0  0
 15 46  1  0  0  0  0
 17 20  2  0  0  0  0
 17 22  1  0  0  0  0
 18 47  1  0  0  0  0
 18 48  1  0  0  0  0
 18 49  1  0  0  0  0
 19 21  2  0  0  0  0
 19 23  1  0  0  0  0
 20 21  1  0  0  0  0
 20 50  1  0  0  0  0
 22 23  2  0  0  0  0
 22 51  1  0  0  0  0
 23 52  1  0  0  0  0
 24 26  1  0  0  0  0
 24 53  1  0  0  0  0
 24 54  1  0  0  0  0
 26 27  1  0  0  0  0
 26 55  1  0  0  0  0
 26 56  1  0  0  0  0
 28 29  1  0  0  0  0
 29 30  2  0  0  0  0
 29 31  1  0  0  0  0
 30 32  1  0  0  0  0
 30 60  1  0  0  0  0
 31 33  2  0  0  0  0
 31 61  1  0  0  0  0
 32 34  2  0  0  0  0
 32 62  1  0  0  0  0
 33 34  1  0  0  0  0
 33 63  1  0  0  0  0
 34 35  1  0  0  0  0
M  END
> <PUBCHEM_COMPOUND_CID>
44593713

> <PUBCHEM_COMPOUND_CANONICALIZED>
1

> <PUBCHEM_CACTVS_COMPLEXITY>
826

> <PUBCHEM_CACTVS_HBOND_ACCEPTOR>
5

> <PUBCHEM_CACTVS_HBOND_DONOR>
2

> <PUBCHEM_CACTVS_ROTATABLE_BOND>
7

> <PUBCHEM_CACTVS_SUBSKEYS>
AAADceB7sAAAAAAAAAAAAAAAAAAAAWAAAAAwYMAAAAAAAFgB9AAAHgAQAAAADQjBngQz0LfMEAC4ByVydACigC0lEqAJ2CE4dNiI6LrA3dGUJQholwLIya8YiACOQACAAAQAACCAAQAACAAAQAAAAAAAAA==

> <PUBCHEM_IUPAC_OPENEYE_NAME>
N-[1-(3-amino-3-oxo-propyl)-5-[cyclohexanecarbonyl(methyl)amino]benzimidazol-2-yl]-4-cyano-benzamide

> <PUBCHEM_IUPAC_CAS_NAME>
N-[1-(3-amino-3-oxopropyl)-5-[[cyclohexyl(oxo)methyl]-methylamino]-2-benzimidazolyl]-4-cyanobenzamide

> <PUBCHEM_IUPAC_NAME_MARKUP>
<I>N</I>-[1-(3-amino-3-oxopropyl)-5-[cyclohexanecarbonyl(methyl)amino]benzimidazol-2-yl]-4-cyanobenzamide

> <PUBCHEM_IUPAC_NAME>
N-[1-(3-amino-3-oxopropyl)-5-[cyclohexanecarbonyl(methyl)amino]benzimidazol-2-yl]-4-cyanobenzamide

> <PUBCHEM_IUPAC_SYSTEMATIC_NAME>
N-[1-(3-azanyl-3-oxidanylidene-propyl)-5-[cyclohexylcarbonyl(methyl)amino]benzimidazol-2-yl]-4-cyano-benzamide

> <PUBCHEM_IUPAC_TRADITIONAL_NAME>
N-[1-(3-amino-3-keto-propyl)-5-[cyclohexanecarbonyl(methyl)amino]benzimidazol-2-yl]-4-cyano-benzamide

> <PUBCHEM_IUPAC_INCHI>
InChI=1S/C26H28N6O3/c1-31(25(35)19-5-3-2-4-6-19)20-11-12-22-21(15-20)29-26(32(22)14-13-23(28)33)30-24(34)18-9-7-17(16-27)8-10-18/h7-12,15,19H,2-6,13-14H2,1H3,(H2,28,33)(H,29,30,34)

> <PUBCHEM_IUPAC_INCHIKEY>
IMLXFZLHOPEBPM-UHFFFAOYSA-N

> <PUBCHEM_XLOGP3_AA>
2.5

> <PUBCHEM_EXACT_MASS>
472.22228878

> <PUBCHEM_MOLECULAR_FORMULA>
C26H28N6O3

> <PUBCHEM_MOLECULAR_WEIGHT>
472.5

> <PUBCHEM_SMILES>
CN(C1=CC2=C(C=C1)N(C(=N2)NC(=O)C3=CC=C(C=C3)C#N)CCC(=O)N)C(=O)C4CCCCC4

> <PUBCHEM_OPENEYE_CAN_SMILES>
CN(C1=CC2=C(C=C1)N(C(=N2)NC(=O)C3=CC=C(C=C3)C#N)CCC(=O)N)C(=O)C4CCCCC4

> <PUBCHEM_OPENEYE_ISO_SMILES>
CN(C1=CC2=C(C=C1)N(C(=N2)NC(=O)C3=CC=C(C=C3)C#N)CCC(=O)N)C(=O)C4CCCCC4

> <PUBCHEM_CACTVS_TPSA>
134

> <PUBCHEM_MONOISOTOPIC_WEIGHT>
472.22228878

> <PUBCHEM_TOTAL_CHARGE>
0

> <PUBCHEM_HEAVY_ATOM_COUNT>
35

> <PUBCHEM_ATOM_DEF_STEREO_COUNT>
0

> <PUBCHEM_ATOM_UDEF_STEREO_COUNT>
0

> <PUBCHEM_BOND_DEF_STEREO_COUNT>
0

> <PUBCHEM_BOND_UDEF_STEREO_COUNT>
0

> <PUBCHEM_ISOTOPIC_ATOM_COUNT>
0

> <PUBCHEM_COMPONENT_COUNT>
1

> <PUBCHEM_CACTVS_TAUTO_COUNT>
-1

> <PUBCHEM_COORDINATE_TYPE>
1
5
255

> <PUBCHEM_BONDANNOTATIONS>
17  20  8
17  22  8
19  21  8
19  23  8
20  21  8
22  23  8
29  30  8
29  31  8
30  32  8
31  33  8
32  34  8
33  34  8
5  19  8
5  25  8
6  21  8
6  25  8

$$$$
