11314310
  -OEChem-03202504492D

 46 49  0     0  0  0  0  0  0999 V2000
    3.7320    0.9470    0.0000 O   0  0  0  0  0  0  0  0  0  0  0  0
    7.2764   -4.8577    0.0000 N   0  0  0  0  0  0  0  0  0  0  0  0
    7.8600   -4.0530    0.0000 N   0  0  0  0  0  0  0  0  0  0  0  0
    5.4641    0.9470    0.0000 N   0  0  0  0  0  0  0  0  0  0  0  0
    7.5870   -2.2977    0.0000 N   0  0  0  0  0  0  0  0  0  0  0  0
    4.5981    2.4470    0.0000 N   0  0  0  0  0  0  0  0  0  0  0  0
    6.3301   -3.5530    0.0000 C   0  0  0  0  0  0  0  0  0  0  0  0
    5.4641   -3.0530    0.0000 C   0  0  0  0  0  0  0  0  0  0  0  0
    6.3301   -4.5530    0.0000 C   0  0  0  0  0  0  0  0  0  0  0  0
    5.4641   -2.0530    0.0000 C   0  0  0  0  0  0  0  0  0  0  0  0
    7.2764   -3.2482    0.0000 C   0  0  0  0  0  0  0  0  0  0  0  0
    4.5981   -3.5530    0.0000 C   0  0  0  0  0  0  0  0  0  0  0  0
    5.4641   -5.0530    0.0000 C   0  0  0  0  0  0  0  0  0  0  0  0
    4.5981   -1.5530    0.0000 C   0  0  0  0  0  0  0  0  0  0  0  0
    6.3301   -1.5530    0.0000 C   0  0  0  0  0  0  0  0  0  0  0  0
    4.5981   -4.5530    0.0000 C   0  0  0  0  0  0  0  0  0  0  0  0
    5.4641   -0.0530    0.0000 C   0  0  0  0  0  0  0  0  0  0  0  0
    4.5981   -0.5530    0.0000 C   0  0  0  0  0  0  0  0  0  0  0  0
    6.3301   -0.5530    0.0000 C   0  0  0  0  0  0  0  0  0  0  0  0
    3.7320    2.9470    0.0000 C   0  0  0  0  0  0  0  0  0  0  0  0
    4.5981    1.4470    0.0000 C   0  0  0  0  0  0  0  0  0  0  0  0
    2.8660    4.4470    0.0000 C   0  0  0  0  0  0  0  0  0  0  0  0
    3.7320    3.9470    0.0000 C   0  0  0  0  0  0  0  0  0  0  0  0
    2.8660    2.4470    0.0000 C   0  0  0  0  0  0  0  0  0  0  0  0
    2.0000    3.9470    0.0000 C   0  0  0  0  0  0  0  0  0  0  0  0
    2.0000    2.9470    0.0000 C   0  0  0  0  0  0  0  0  0  0  0  0
    2.8660    5.4470    0.0000 C   0  0  0  0  0  0  0  0  0  0  0  0
    4.0611   -3.2430    0.0000 H   0  0  0  0  0  0  0  0  0  0  0  0
    5.4641   -5.6730    0.0000 H   0  0  0  0  0  0  0  0  0  0  0  0
    4.0611   -1.8630    0.0000 H   0  0  0  0  0  0  0  0  0  0  0  0
    6.8671   -1.8630    0.0000 H   0  0  0  0  0  0  0  0  0  0  0  0
    4.0611   -4.8630    0.0000 H   0  0  0  0  0  0  0  0  0  0  0  0
    7.4690   -5.4470    0.0000 H   0  0  0  0  0  0  0  0  0  0  0  0
    4.0611   -0.2430    0.0000 H   0  0  0  0  0  0  0  0  0  0  0  0
    6.8671   -0.2430    0.0000 H   0  0  0  0  0  0  0  0  0  0  0  0
    6.0010    1.2570    0.0000 H   0  0  0  0  0  0  0  0  0  0  0  0
    8.1937   -2.1699    0.0000 H   0  0  0  0  0  0  0  0  0  0  0  0
    7.1730   -1.8362    0.0000 H   0  0  0  0  0  0  0  0  0  0  0  0
    5.1350    2.7570    0.0000 H   0  0  0  0  0  0  0  0  0  0  0  0
    4.2690    4.2570    0.0000 H   0  0  0  0  0  0  0  0  0  0  0  0
    2.8660    1.8270    0.0000 H   0  0  0  0  0  0  0  0  0  0  0  0
    1.4631    4.2570    0.0000 H   0  0  0  0  0  0  0  0  0  0  0  0
    1.4631    2.6370    0.0000 H   0  0  0  0  0  0  0  0  0  0  0  0
    3.4860    5.4470    0.0000 H   0  0  0  0  0  0  0  0  0  0  0  0
    2.8660    6.0670    0.0000 H   0  0  0  0  0  0  0  0  0  0  0  0
    2.2460    5.4470    0.0000 H   0  0  0  0  0  0  0  0  0  0  0  0
  1 21  2  0  0  0  0
  2  3  1  0  0  0  0
  2  9  1  0  0  0  0
  2 33  1  0  0  0  0
  3 11  2  0  0  0  0
  4 17  1  0  0  0  0
  4 21  1  0  0  0  0
  4 36  1  0  0  0  0
  5 11  1  0  0  0  0
  5 37  1  0  0  0  0
  5 38  1  0  0  0  0
  6 20  1  0  0  0  0
  6 21  1  0  0  0  0
  6 39  1  0  0  0  0
  7  8  2  0  0  0  0
  7  9  1  0  0  0  0
  7 11  1  0  0  0  0
  8 10  1  0  0  0  0
  8 12  1  0  0  0  0
  9 13  2  0  0  0  0
 10 14  2  0  0  0  0
 10 15  1  0  0  0  0
 12 16  2  0  0  0  0
 12 28  1  0  0  0  0
 13 16  1  0  0  0  0
 13 29  1  0  0  0  0
 14 18  1  0  0  0  0
 14 30  1  0  0  0  0
 15 19  2  0  0  0  0
 15 31  1  0  0  0  0
 16 32  1  0  0  0  0
 17 18  2  0  0  0  0
 17 19  1  0  0  0  0
 18 34  1  0  0  0  0
 19 35  1  0  0  0  0
 20 23  1  0  0  0  0
 20 24  2  0  0  0  0
 22 23  2  0  0  0  0
 22 25  1  0  0  0  0
 22 27  1  0  0  0  0
 23 40  1  0  0  0  0
 24 26  1  0  0  0  0
 24 41  1  0  0  0  0
 25 26  2  0  0  0  0
 25 42  1  0  0  0  0
 26 43  1  0  0  0  0
 27 44  1  0  0  0  0
 27 45  1  0  0  0  0
 27 46  1  0  0  0  0
M  END
> <PUBCHEM_COMPOUND_CID>
11314310

> <PUBCHEM_COMPOUND_CANONICALIZED>
1

> <PUBCHEM_CACTVS_COMPLEXITY>
507

> <PUBCHEM_CACTVS_HBOND_ACCEPTOR>
3

> <PUBCHEM_CACTVS_HBOND_DONOR>
4

> <PUBCHEM_CACTVS_ROTATABLE_BOND>
3

> <PUBCHEM_CACTVS_SUBSKEYS>
AAADceB7oAAAAAAAAAAAAAAAAAAAAWAAAAAwYMAAAAAAAFgB9AAAHgAYAAAADAiBHgAz8PLjAACqAyZicACSBAIhAgAcuSAwZJiIIKLA0dGEpAh4nAJIyCcQgMAOiAAAQAASAAAQAACAACQAAAAAAAAAAA==

> <PUBCHEM_IUPAC_OPENEYE_NAME>
1-[4-(3-amino-1H-indazol-4-yl)phenyl]-3-(m-tolyl)urea

> <PUBCHEM_IUPAC_CAS_NAME>
1-[4-(3-amino-1H-indazol-4-yl)phenyl]-3-(3-methylphenyl)urea

> <PUBCHEM_IUPAC_NAME_MARKUP>
1-[4-(3-amino-1<I>H</I>-indazol-4-yl)phenyl]-3-(3-methylphenyl)urea

> <PUBCHEM_IUPAC_NAME>
1-[4-(3-amino-1H-indazol-4-yl)phenyl]-3-(3-methylphenyl)urea

> <PUBCHEM_IUPAC_SYSTEMATIC_NAME>
1-[4-(3-azanyl-1H-indazol-4-yl)phenyl]-3-(3-methylphenyl)urea

> <PUBCHEM_IUPAC_TRADITIONAL_NAME>
1-[4-(3-amino-1H-indazol-4-yl)phenyl]-3-(m-tolyl)urea

> <PUBCHEM_IUPAC_INCHI>
InChI=1S/C21H19N5O/c1-13-4-2-5-16(12-13)24-21(27)23-15-10-8-14(9-11-15)17-6-3-7-18-19(17)20(22)26-25-18/h2-12H,1H3,(H3,22,25,26)(H2,23,24,27)

> <PUBCHEM_IUPAC_INCHIKEY>
SPMHGQZFMNZCBV-UHFFFAOYSA-N

> <PUBCHEM_XLOGP3_AA>
3.8

> <PUBCHEM_EXACT_MASS>
357.15896025

> <PUBCHEM_MOLECULAR_FORMULA>
C21H19N5O

> <PUBCHEM_MOLECULAR_WEIGHT>
357.4

> <PUBCHEM_SMILES>
CC1=CC(=CC=C1)NC(=O)NC2=CC=C(C=C2)C3=C4C(=CC=C3)NN=C4N

> <PUBCHEM_OPENEYE_CAN_SMILES>
CC1=CC(=CC=C1)NC(=O)NC2=CC=C(C=C2)C3=C4C(=CC=C3)NN=C4N

> <PUBCHEM_OPENEYE_ISO_SMILES>
CC1=CC(=CC=C1)NC(=O)NC2=CC=C(C=C2)C3=C4C(=CC=C3)NN=C4N

> <PUBCHEM_CACTVS_TPSA>
95.8

> <PUBCHEM_MONOISOTOPIC_WEIGHT>
357.15896025

> <PUBCHEM_TOTAL_CHARGE>
0

> <PUBCHEM_HEAVY_ATOM_COUNT>
27

> <PUBCHEM_ATOM_DEF_STEREO_COUNT>
0

> <PUBCHEM_ATOM_UDEF_STEREO_COUNT>
0

> <PUBCHEM_BOND_DEF_STEREO_COUNT>
0

> <PUBCHEM_BOND_UDEF_STEREO_COUNT>
0

> <PUBCHEM_ISOTOPIC_ATOM_COUNT>
0

> <PUBCHEM_COMPONENT_COUNT>
1

> <PUBCHEM_CACTVS_TAUTO_COUNT>
-1

> <PUBCHEM_COORDINATE_TYPE>
1
5
255

> <PUBCHEM_BONDANNOTATIONS>
10  14  8
10  15  8
12  16  8
13  16  8
14  18  8
15  19  8
17  18  8
17  19  8
2  3  8
2  9  8
20  23  8
20  24  8
22  23  8
22  25  8
24  26  8
25  26  8
3  11  8
7  11  8
7  8  8
7  9  8
8  12  8
9  13  8

$$$$
