4121107
  -OEChem-03202503462D

 34 36  0     0  0  0  0  0  0999 V2000
    9.5920   -3.3100    0.0000 S   0  0  0  0  0  0  0  0  0  0  0  0
    3.7320    0.6900    0.0000 O   0  0  0  0  0  0  0  0  0  0  0  0
    2.0000    3.6900    0.0000 O   0  0  0  0  0  0  0  0  0  0  0  0
    5.4641   -1.3100    0.0000 O   0  0  0  0  0  0  0  0  0  0  0  0
    7.1962   -1.3100    0.0000 N   0  0  0  0  0  0  0  0  0  0  0  0
    9.0084   -2.5053    0.0000 N   0  0  0  0  0  0  0  0  0  0  0  0
    9.0084   -4.1147    0.0000 N   0  0  0  0  0  0  0  0  0  0  0  0
    6.3301    0.1900    0.0000 N   0  0  0  0  0  0  0  0  0  0  0  0
    5.4641    0.6900    0.0000 N   0  0  0  0  0  0  0  0  0  0  0  0
    7.1962   -2.3100    0.0000 C   0  0  0  0  0  0  0  0  0  0  0  0
    8.0622   -2.8100    0.0000 C   0  0  0  0  0  0  0  0  0  0  0  0
    8.0622   -3.8100    0.0000 C   0  0  0  0  0  0  0  0  0  0  0  0
    6.3301   -2.8100    0.0000 C   0  0  0  0  0  0  0  0  0  0  0  0
    7.1962   -4.3100    0.0000 C   0  0  0  0  0  0  0  0  0  0  0  0
    6.3301   -3.8100    0.0000 C   0  0  0  0  0  0  0  0  0  0  0  0
    4.5981    2.1900    0.0000 C   0  0  0  0  0  0  0  0  0  0  0  0
    3.7320    1.6900    0.0000 C   0  0  0  0  0  0  0  0  0  0  0  0
    4.5981    3.1900    0.0000 C   0  0  0  0  0  0  0  0  0  0  0  0
    2.8660    2.1900    0.0000 C   0  0  0  0  0  0  0  0  0  0  0  0
    6.3301   -0.8100    0.0000 C   0  0  0  0  0  0  0  0  0  0  0  0
    2.8660    3.1900    0.0000 C   0  0  0  0  0  0  0  0  0  0  0  0
    3.7320    3.6900    0.0000 C   0  0  0  0  0  0  0  0  0  0  0  0
    5.4641    1.6900    0.0000 C   0  0  0  0  0  0  0  0  0  0  0  0
    5.7932   -2.5000    0.0000 H   0  0  0  0  0  0  0  0  0  0  0  0
    7.1962   -4.9300    0.0000 H   0  0  0  0  0  0  0  0  0  0  0  0
    5.7932   -4.1200    0.0000 H   0  0  0  0  0  0  0  0  0  0  0  0
    7.7331   -1.0000    0.0000 H   0  0  0  0  0  0  0  0  0  0  0  0
    5.1350    3.5000    0.0000 H   0  0  0  0  0  0  0  0  0  0  0  0
    2.3291    1.8800    0.0000 H   0  0  0  0  0  0  0  0  0  0  0  0
    3.7320    4.3100    0.0000 H   0  0  0  0  0  0  0  0  0  0  0  0
    6.0010    2.0000    0.0000 H   0  0  0  0  0  0  0  0  0  0  0  0
    6.8671    0.5000    0.0000 H   0  0  0  0  0  0  0  0  0  0  0  0
    3.1951    0.3800    0.0000 H   0  0  0  0  0  0  0  0  0  0  0  0
    2.0000    4.3100    0.0000 H   0  0  0  0  0  0  0  0  0  0  0  0
  1  6  1  0  0  0  0
  1  7  1  0  0  0  0
  2 17  1  0  0  0  0
  2 33  1  0  0  0  0
  3 21  1  0  0  0  0
  3 34  1  0  0  0  0
  4 20  2  0  0  0  0
  5 10  1  0  0  0  0
  5 20  1  0  0  0  0
  5 27  1  0  0  0  0
  6 11  2  0  0  0  0
  7 12  2  0  0  0  0
  8  9  1  0  0  0  0
  8 20  1  0  0  0  0
  8 32  1  0  0  0  0
  9 23  2  3  0  0  0
 10 11  1  0  0  0  0
 10 13  2  0  0  0  0
 11 12  1  0  0  0  0
 12 14  1  0  0  0  0
 13 15  1  0  0  0  0
 13 24  1  0  0  0  0
 14 15  2  0  0  0  0
 14 25  1  0  0  0  0
 15 26  1  0  0  0  0
 16 17  2  0  0  0  0
 16 18  1  0  0  0  0
 16 23  1  0  0  0  0
 17 19  1  0  0  0  0
 18 22  2  0  0  0  0
 18 28  1  0  0  0  0
 19 21  2  0  0  0  0
 19 29  1  0  0  0  0
 21 22  1  0  0  0  0
 22 30  1  0  0  0  0
 23 31  1  0  0  0  0
M  END
> <PUBCHEM_COMPOUND_CID>
4121107

> <PUBCHEM_COMPOUND_CANONICALIZED>
1

> <PUBCHEM_CACTVS_COMPLEXITY>
452

> <PUBCHEM_CACTVS_HBOND_ACCEPTOR>
7

> <PUBCHEM_CACTVS_HBOND_DONOR>
4

> <PUBCHEM_CACTVS_ROTATABLE_BOND>
3

> <PUBCHEM_CACTVS_SUBSKEYS>
AAADccBzsABAAAAAAAAAAAAAAAAAAWAAAAAwYAAAAAAAAFgB9AAAHgAYSAAADAzBngQxxrLiAgCoAzRjUACSAAQhMgAOmCA2fJiIZ6LC0dOUdAh13BdI2CeQ4CQOIAAACAQIACBAAAAQCBAAQAAAAAAAAA==

> <PUBCHEM_IUPAC_OPENEYE_NAME>
1-(2,1,3-benzothiadiazol-4-yl)-3-[(2,4-dihydroxyphenyl)methyleneamino]urea

> <PUBCHEM_IUPAC_CAS_NAME>
1-(2,1,3-benzothiadiazol-4-yl)-3-[(2,4-dihydroxyphenyl)methylideneamino]urea

> <PUBCHEM_IUPAC_NAME_MARKUP>
1-(2,1,3-benzothiadiazol-4-yl)-3-[(2,4-dihydroxyphenyl)methylideneamino]urea

> <PUBCHEM_IUPAC_NAME>
1-(2,1,3-benzothiadiazol-4-yl)-3-[(2,4-dihydroxyphenyl)methylideneamino]urea

> <PUBCHEM_IUPAC_SYSTEMATIC_NAME>
1-(2,1,3-benzothiadiazol-4-yl)-3-[[2,4-bis(oxidanyl)phenyl]methylideneamino]urea

> <PUBCHEM_IUPAC_TRADITIONAL_NAME>
1-[(2,4-dihydroxybenzylidene)amino]-3-piazthiol-4-yl-urea

> <PUBCHEM_IUPAC_INCHI>
InChI=1S/C14H11N5O3S/c20-9-5-4-8(12(21)6-9)7-15-17-14(22)16-10-2-1-3-11-13(10)19-23-18-11/h1-7,20-21H,(H2,16,17,22)

> <PUBCHEM_IUPAC_INCHIKEY>
RLBVMDNZMOAABQ-UHFFFAOYSA-N

> <PUBCHEM_XLOGP3_AA>
1.7

> <PUBCHEM_EXACT_MASS>
329.05826040

> <PUBCHEM_MOLECULAR_FORMULA>
C14H11N5O3S

> <PUBCHEM_MOLECULAR_WEIGHT>
329.34

> <PUBCHEM_SMILES>
C1=CC2=NSN=C2C(=C1)NC(=O)NN=CC3=C(C=C(C=C3)O)O

> <PUBCHEM_OPENEYE_CAN_SMILES>
C1=CC2=NSN=C2C(=C1)NC(=O)NN=CC3=C(C=C(C=C3)O)O

> <PUBCHEM_OPENEYE_ISO_SMILES>
C1=CC2=NSN=C2C(=C1)NC(=O)NN=CC3=C(C=C(C=C3)O)O

> <PUBCHEM_CACTVS_TPSA>
148

> <PUBCHEM_MONOISOTOPIC_WEIGHT>
329.05826040

> <PUBCHEM_TOTAL_CHARGE>
0

> <PUBCHEM_HEAVY_ATOM_COUNT>
23

> <PUBCHEM_ATOM_DEF_STEREO_COUNT>
0

> <PUBCHEM_ATOM_UDEF_STEREO_COUNT>
0

> <PUBCHEM_BOND_DEF_STEREO_COUNT>
0

> <PUBCHEM_BOND_UDEF_STEREO_COUNT>
1

> <PUBCHEM_ISOTOPIC_ATOM_COUNT>
0

> <PUBCHEM_COMPONENT_COUNT>
1

> <PUBCHEM_CACTVS_TAUTO_COUNT>
-1

> <PUBCHEM_COORDINATE_TYPE>
1
5
255

> <PUBCHEM_BONDANNOTATIONS>
1  6  8
1  7  8
10  11  8
10  13  8
11  12  8
12  14  8
13  15  8
14  15  8
16  17  8
16  18  8
17  19  8
18  22  8
19  21  8
21  22  8
6  11  8
7  12  8
9  23  1

$$$$
