44378539
  -OEChem-03202506172D

143144  0     1  0  0  0  0  0999 V2000
   10.2645   -4.2270    0.0000 S   0  0  0  0  0  0  0  0  0  0  0  0
    9.7331    0.2730    0.0000 O   0  0  0  0  0  0  0  0  0  0  0  0
   12.4651    2.7730    0.0000 O   0  0  0  0  0  0  0  0  0  0  0  0
    7.0010    2.7730    0.0000 O   0  0  0  0  0  0  0  0  0  0  0  0
   15.1972    0.2730    0.0000 O   0  0  0  0  0  0  0  0  0  0  0  0
    3.4030    1.7730    0.0000 O   0  0  0  0  0  0  0  0  0  0  0  0
    4.2690    0.2730    0.0000 O   0  0  0  0  0  0  0  0  0  0  0  0
   14.7286   -6.7270    0.0000 O   0  0  0  0  0  0  0  0  0  0  0  0
   11.9965   -4.2270    0.0000 O   0  0  0  0  0  0  0  0  0  0  0  0
   10.2645   -3.2270    0.0000 O   0  0  0  0  0  0  0  0  0  0  0  0
   11.2645   -4.2270    0.0000 O   0  0  0  0  0  0  0  0  0  0  0  0
   11.4651    1.2730    0.0000 N   0  0  0  0  0  0  0  0  0  0  0  0
    8.7331    1.7730    0.0000 N   0  0  0  0  0  0  0  0  0  0  0  0
   14.1972    1.7730    0.0000 N   0  0  0  0  0  0  0  0  0  0  0  0
    6.0010    1.2730    0.0000 N   0  0  0  0  0  0  0  0  0  0  0  0
   16.9292    1.2730    0.0000 N   0  0  0  0  0  0  0  0  0  0  0  0
    8.8671    4.7730    0.0000 N   0  0  0  0  0  0  0  0  0  0  0  0
    5.2690   -0.2270    0.0000 N   0  0  0  0  0  0  0  0  0  0  0  0
   15.6972   -1.0930    0.0000 N   0  0  0  0  0  0  0  0  0  0  0  0
   12.9965   -5.7270    0.0000 N   0  0  0  0  0  0  0  0  0  0  0  0
    3.4030    4.7730    0.0000 N   0  0  0  0  0  0  0  0  0  0  0  0
   10.2645   -5.2270    0.0000 N   0  0  0  0  0  0  0  0  0  0  0  0
    8.0010    6.2730    0.0000 N   0  0  0  0  0  0  0  0  0  0  0  0
    9.7331    6.2730    0.0000 N   0  0  0  0  0  0  0  0  0  0  0  0
    4.4030   -1.7270    0.0000 N   0  0  0  0  0  0  0  0  0  0  0  0
    6.1350   -1.7270    0.0000 N   0  0  0  0  0  0  0  0  0  0  0  0
   17.1972   -1.9590    0.0000 N   0  0  0  0  0  0  0  0  0  0  0  0
   15.6973   -2.8250    0.0000 N   0  0  0  0  0  0  0  0  0  0  0  0
    2.5369    6.2730    0.0000 N   0  0  0  0  0  0  0  0  0  0  0  0
    4.2690    6.2730    0.0000 N   0  0  0  0  0  0  0  0  0  0  0  0
    7.7437   -6.8930    0.0000 N   0  0  0  0  0  0  0  0  0  0  0  0
   10.5991    1.7730    0.0000 C   0  0  1  0  0  0  0  0  0  0  0  0
    7.8671    1.2730    0.0000 C   0  0  1  0  0  0  0  0  0  0  0  0
   10.5991    2.7730    0.0000 C   0  0  0  0  0  0  0  0  0  0  0  0
   13.3312    1.2730    0.0000 C   0  0  1  0  0  0  0  0  0  0  0  0
    7.8671    0.2730    0.0000 C   0  0  0  0  0  0  0  0  0  0  0  0
    9.7331    1.2730    0.0000 C   0  0  0  0  0  0  0  0  0  0  0  0
   13.3312    0.2730    0.0000 C   0  0  0  0  0  0  0  0  0  0  0  0
    9.7331    3.2730    0.0000 C   0  0  0  0  0  0  0  0  0  0  0  0
   12.4651    1.7730    0.0000 C   0  0  0  0  0  0  0  0  0  0  0  0
    7.0010   -0.2270    0.0000 C   0  0  0  0  0  0  0  0  0  0  0  0
    7.0010    1.7730    0.0000 C   0  0  0  0  0  0  0  0  0  0  0  0
   14.1972   -0.2270    0.0000 C   0  0  0  0  0  0  0  0  0  0  0  0
    5.1350    1.7730    0.0000 C   0  0  1  0  0  0  0  0  0  0  0  0
    9.7331    4.2730    0.0000 C   0  0  0  0  0  0  0  0  0  0  0  0
    5.1350    2.7730    0.0000 C   0  0  0  0  0  0  0  0  0  0  0  0
    6.1350    0.2730    0.0000 C   0  0  0  0  0  0  0  0  0  0  0  0
   15.1972    1.2730    0.0000 C   0  0  0  0  0  0  0  0  0  0  0  0
   16.0632    1.7730    0.0000 C   0  0  2  0  0  0  0  0  0  0  0  0
   14.6973   -1.0930    0.0000 C   0  0  0  0  0  0  0  0  0  0  0  0
    4.2690    3.2730    0.0000 C   0  0  0  0  0  0  0  0  0  0  0  0
    4.2690    1.2730    0.0000 C   0  0  0  0  0  0  0  0  0  0  0  0
   16.0632    2.7730    0.0000 C   0  0  0  0  0  0  0  0  0  0  0  0
    4.2690    4.2730    0.0000 C   0  0  0  0  0  0  0  0  0  0  0  0
   13.8626   -5.2270    0.0000 C   0  0  2  0  0  0  0  0  0  0  0  0
   14.7286   -5.7270    0.0000 C   0  0  0  0  0  0  0  0  0  0  0  0
   11.1305   -5.7270    0.0000 C   0  0  2  0  0  0  0  0  0  0  0  0
   13.8626   -4.2270    0.0000 C   0  0  0  0  0  0  0  0  0  0  0  0
   11.9965   -5.2270    0.0000 C   0  0  0  0  0  0  0  0  0  0  0  0
    8.8671    5.7730    0.0000 C   0  0  0  0  0  0  0  0  0  0  0  0
    5.2690   -1.2270    0.0000 C   0  0  0  0  0  0  0  0  0  0  0  0
   16.1972   -1.9590    0.0000 C   0  0  0  0  0  0  0  0  0  0  0  0
   11.1305   -6.7270    0.0000 C   0  0  0  0  0  0  0  0  0  0  0  0
    9.2645   -4.2270    0.0000 C   0  0  0  0  0  0  0  0  0  0  0  0
    8.7645   -5.0930    0.0000 C   0  0  0  0  0  0  0  0  0  0  0  0
    3.4030    5.7730    0.0000 C   0  0  0  0  0  0  0  0  0  0  0  0
    7.7645   -5.0930    0.0000 C   0  0  0  0  0  0  0  0  0  0  0  0
    8.7645   -3.3610    0.0000 C   0  0  0  0  0  0  0  0  0  0  0  0
    7.2645   -4.2270    0.0000 C   0  0  0  0  0  0  0  0  0  0  0  0
    7.7645   -3.3610    0.0000 C   0  0  0  0  0  0  0  0  0  0  0  0
    9.2992   -5.9870    0.0000 C   0  0  0  0  0  0  0  0  0  0  0  0
    7.2298   -5.9870    0.0000 C   0  0  0  0  0  0  0  0  0  0  0  0
    8.7853   -6.8930    0.0000 C   0  0  0  0  0  0  0  0  0  0  0  0
   11.1360    2.0830    0.0000 H   0  0  0  0  0  0  0  0  0  0  0  0
    8.4040    0.9630    0.0000 H   0  0  0  0  0  0  0  0  0  0  0  0
   11.2097    2.6654    0.0000 H   0  0  0  0  0  0  0  0  0  0  0  0
   10.8112    3.3556    0.0000 H   0  0  0  0  0  0  0  0  0  0  0  0
   13.8681    0.9630    0.0000 H   0  0  0  0  0  0  0  0  0  0  0  0
    8.0791   -0.3096    0.0000 H   0  0  0  0  0  0  0  0  0  0  0  0
    8.4776    0.3807    0.0000 H   0  0  0  0  0  0  0  0  0  0  0  0
   12.0021    0.9630    0.0000 H   0  0  0  0  0  0  0  0  0  0  0  0
   12.7206    0.3807    0.0000 H   0  0  0  0  0  0  0  0  0  0  0  0
   13.1191   -0.3096    0.0000 H   0  0  0  0  0  0  0  0  0  0  0  0
    9.2700    2.0830    0.0000 H   0  0  0  0  0  0  0  0  0  0  0  0
    9.1225    3.3807    0.0000 H   0  0  0  0  0  0  0  0  0  0  0  0
    9.5210    2.6904    0.0000 H   0  0  0  0  0  0  0  0  0  0  0  0
    6.6025   -0.7019    0.0000 H   0  0  0  0  0  0  0  0  0  0  0  0
    7.3996   -0.7019    0.0000 H   0  0  0  0  0  0  0  0  0  0  0  0
   14.8078   -0.1193    0.0000 H   0  0  0  0  0  0  0  0  0  0  0  0
   13.7588   -0.6654    0.0000 H   0  0  0  0  0  0  0  0  0  0  0  0
    5.6720    2.0830    0.0000 H   0  0  0  0  0  0  0  0  0  0  0  0
   14.7341    2.0830    0.0000 H   0  0  0  0  0  0  0  0  0  0  0  0
    6.5380    0.9630    0.0000 H   0  0  0  0  0  0  0  0  0  0  0  0
   10.3437    4.1654    0.0000 H   0  0  0  0  0  0  0  0  0  0  0  0
    9.9451    4.8556    0.0000 H   0  0  0  0  0  0  0  0  0  0  0  0
    5.7456    2.6654    0.0000 H   0  0  0  0  0  0  0  0  0  0  0  0
    5.3471    3.3556    0.0000 H   0  0  0  0  0  0  0  0  0  0  0  0
    6.5335    0.7480    0.0000 H   0  0  0  0  0  0  0  0  0  0  0  0
    5.7365    0.7480    0.0000 H   0  0  0  0  0  0  0  0  0  0  0  0
   16.6001    2.0830    0.0000 H   0  0  0  0  0  0  0  0  0  0  0  0
   14.1147   -1.3050    0.0000 H   0  0  0  0  0  0  0  0  0  0  0  0
   14.8049   -1.7035    0.0000 H   0  0  0  0  0  0  0  0  0  0  0  0
    3.6584    3.3807    0.0000 H   0  0  0  0  0  0  0  0  0  0  0  0
    4.0569    2.6904    0.0000 H   0  0  0  0  0  0  0  0  0  0  0  0
   17.4662    0.9630    0.0000 H   0  0  0  0  0  0  0  0  0  0  0  0
   16.6832    2.7730    0.0000 H   0  0  0  0  0  0  0  0  0  0  0  0
   16.0632    3.3930    0.0000 H   0  0  0  0  0  0  0  0  0  0  0  0
   15.4432    2.7730    0.0000 H   0  0  0  0  0  0  0  0  0  0  0  0
    4.8796    4.1654    0.0000 H   0  0  0  0  0  0  0  0  0  0  0  0
    4.4810    4.8556    0.0000 H   0  0  0  0  0  0  0  0  0  0  0  0
   13.3256   -4.9170    0.0000 H   0  0  0  0  0  0  0  0  0  0  0  0
   10.5936   -6.0370    0.0000 H   0  0  0  0  0  0  0  0  0  0  0  0
   13.5335   -6.0370    0.0000 H   0  0  0  0  0  0  0  0  0  0  0  0
   14.4826   -4.2270    0.0000 H   0  0  0  0  0  0  0  0  0  0  0  0
   13.8626   -3.6070    0.0000 H   0  0  0  0  0  0  0  0  0  0  0  0
   13.2426   -4.2270    0.0000 H   0  0  0  0  0  0  0  0  0  0  0  0
    2.8660    1.4630    0.0000 H   0  0  0  0  0  0  0  0  0  0  0  0
   10.8014   -5.5370    0.0000 H   0  0  0  0  0  0  0  0  0  0  0  0
   10.5105   -6.7270    0.0000 H   0  0  0  0  0  0  0  0  0  0  0  0
   11.1305   -7.3470    0.0000 H   0  0  0  0  0  0  0  0  0  0  0  0
   11.7505   -6.7270    0.0000 H   0  0  0  0  0  0  0  0  0  0  0  0
    8.0010    6.8930    0.0000 H   0  0  0  0  0  0  0  0  0  0  0  0
    7.4641    5.9630    0.0000 H   0  0  0  0  0  0  0  0  0  0  0  0
    9.7331    6.8930    0.0000 H   0  0  0  0  0  0  0  0  0  0  0  0
   10.2700    5.9630    0.0000 H   0  0  0  0  0  0  0  0  0  0  0  0
    9.0745   -2.8240    0.0000 H   0  0  0  0  0  0  0  0  0  0  0  0
    3.8660   -1.4170    0.0000 H   0  0  0  0  0  0  0  0  0  0  0  0
    4.4030   -2.3470    0.0000 H   0  0  0  0  0  0  0  0  0  0  0  0
    6.6720   -1.4170    0.0000 H   0  0  0  0  0  0  0  0  0  0  0  0
    6.1350   -2.3470    0.0000 H   0  0  0  0  0  0  0  0  0  0  0  0
   17.5072   -1.4221    0.0000 H   0  0  0  0  0  0  0  0  0  0  0  0
   17.5072   -2.4960    0.0000 H   0  0  0  0  0  0  0  0  0  0  0  0
   15.0773   -2.8250    0.0000 H   0  0  0  0  0  0  0  0  0  0  0  0
   16.0073   -3.3619    0.0000 H   0  0  0  0  0  0  0  0  0  0  0  0
    6.6445   -4.2270    0.0000 H   0  0  0  0  0  0  0  0  0  0  0  0
    7.4545   -2.8240    0.0000 H   0  0  0  0  0  0  0  0  0  0  0  0
    9.9191   -5.9798    0.0000 H   0  0  0  0  0  0  0  0  0  0  0  0
    6.6099   -5.9798    0.0000 H   0  0  0  0  0  0  0  0  0  0  0  0
    2.5369    6.8930    0.0000 H   0  0  0  0  0  0  0  0  0  0  0  0
    2.0000    5.9630    0.0000 H   0  0  0  0  0  0  0  0  0  0  0  0
    4.2690    6.8930    0.0000 H   0  0  0  0  0  0  0  0  0  0  0  0
    4.8059    5.9630    0.0000 H   0  0  0  0  0  0  0  0  0  0  0  0
    9.0974   -7.4288    0.0000 H   0  0  0  0  0  0  0  0  0  0  0  0
  1 10  2  0  0  0  0
  1 11  2  0  0  0  0
  1 22  1  0  0  0  0
  1 64  1  0  0  0  0
  2 37  2  0  0  0  0
  3 40  2  0  0  0  0
  4 42  2  0  0  0  0
  5 48  2  0  0  0  0
  6 52  1  0  0  0  0
  6117  1  0  0  0  0
  7 52  2  0  0  0  0
  8 56  2  0  0  0  0
  9 59  2  0  0  0  0
 32 12  1  6  0  0  0
 12 40  1  0  0  0  0
 12 81  1  0  0  0  0
 33 13  1  1  0  0  0
 13 37  1  0  0  0  0
 13 84  1  0  0  0  0
 35 14  1  1  0  0  0
 14 48  1  0  0  0  0
 14 92  1  0  0  0  0
 15 42  1  0  0  0  0
 44 15  1  6  0  0  0
 15 93  1  0  0  0  0
 49 16  1  6  0  0  0
 16 56  1  0  0  0  0
 16105  1  0  0  0  0
 17 45  1  0  0  0  0
 17 60  2  0  0  0  0
 18 47  1  0  0  0  0
 18 61  2  0  0  0  0
 19 50  1  0  0  0  0
 19 62  2  0  0  0  0
 55 20  1  1  0  0  0
 20 59  1  0  0  0  0
 20113  1  0  0  0  0
 21 54  1  0  0  0  0
 21 66  2  0  0  0  0
 57 22  1  6  0  0  0
 22118  1  0  0  0  0
 23 60  1  0  0  0  0
 23122  1  0  0  0  0
 23123  1  0  0  0  0
 24 60  1  0  0  0  0
 24124  1  0  0  0  0
 24125  1  0  0  0  0
 25 61  1  0  0  0  0
 25127  1  0  0  0  0
 25128  1  0  0  0  0
 26 61  1  0  0  0  0
 26129  1  0  0  0  0
 26130  1  0  0  0  0
 27 62  1  0  0  0  0
 27131  1  0  0  0  0
 27132  1  0  0  0  0
 28 62  1  0  0  0  0
 28133  1  0  0  0  0
 28134  1  0  0  0  0
 29 66  1  0  0  0  0
 29139  1  0  0  0  0
 29140  1  0  0  0  0
 30 66  1  0  0  0  0
 30141  1  0  0  0  0
 30142  1  0  0  0  0
 31 72  2  0  0  0  0
 31 73  1  0  0  0  0
 32 34  1  0  0  0  0
 32 37  1  0  0  0  0
 32 74  1  0  0  0  0
 33 36  1  0  0  0  0
 33 42  1  0  0  0  0
 33 75  1  0  0  0  0
 34 39  1  0  0  0  0
 34 76  1  0  0  0  0
 34 77  1  0  0  0  0
 35 38  1  0  0  0  0
 35 40  1  0  0  0  0
 35 78  1  0  0  0  0
 36 41  1  0  0  0  0
 36 79  1  0  0  0  0
 36 80  1  0  0  0  0
 38 43  1  0  0  0  0
 38 82  1  0  0  0  0
 38 83  1  0  0  0  0
 39 45  1  0  0  0  0
 39 85  1  0  0  0  0
 39 86  1  0  0  0  0
 41 47  1  0  0  0  0
 41 87  1  0  0  0  0
 41 88  1  0  0  0  0
 43 50  1  0  0  0  0
 43 89  1  0  0  0  0
 43 90  1  0  0  0  0
 44 46  1  0  0  0  0
 44 52  1  0  0  0  0
 44 91  1  0  0  0  0
 45 94  1  0  0  0  0
 45 95  1  0  0  0  0
 46 51  1  0  0  0  0
 46 96  1  0  0  0  0
 46 97  1  0  0  0  0
 47 98  1  0  0  0  0
 47 99  1  0  0  0  0
 48 49  1  0  0  0  0
 49 53  1  0  0  0  0
 49100  1  0  0  0  0
 50101  1  0  0  0  0
 50102  1  0  0  0  0
 51 54  1  0  0  0  0
 51103  1  0  0  0  0
 51104  1  0  0  0  0
 53106  1  0  0  0  0
 53107  1  0  0  0  0
 53108  1  0  0  0  0
 54109  1  0  0  0  0
 54110  1  0  0  0  0
 55 56  1  0  0  0  0
 55 58  1  0  0  0  0
 55111  1  0  0  0  0
 57 59  1  0  0  0  0
 57 63  1  0  0  0  0
 57112  1  0  0  0  0
 58114  1  0  0  0  0
 58115  1  0  0  0  0
 58116  1  0  0  0  0
 63119  1  0  0  0  0
 63120  1  0  0  0  0
 63121  1  0  0  0  0
 64 65  1  0  0  0  0
 64 68  2  0  0  0  0
 65 67  2  0  0  0  0
 65 71  1  0  0  0  0
 67 69  1  0  0  0  0
 67 72  1  0  0  0  0
 68 70  1  0  0  0  0
 68126  1  0  0  0  0
 69 70  2  0  0  0  0
 69135  1  0  0  0  0
 70136  1  0  0  0  0
 71 73  2  0  0  0  0
 71137  1  0  0  0  0
 72138  1  0  0  0  0
 73143  1  0  0  0  0
M  END
> <PUBCHEM_COMPOUND_CID>
44378539

> <PUBCHEM_COMPOUND_CANONICALIZED>
1

> <PUBCHEM_CACTVS_COMPLEXITY>
2090

> <PUBCHEM_CACTVS_HBOND_ACCEPTOR>
16

> <PUBCHEM_CACTVS_HBOND_DONOR>
16

> <PUBCHEM_CACTVS_ROTATABLE_BOND>
32

> <PUBCHEM_CACTVS_SUBSKEYS>
AAADcfB//ABAAAAAAAAAAAAAAAAAAAAAAAA8QAAAAAAAAACx8AAAHgQQSAAADCjB2gQ/idLIEgKoAjH3fHDCgDExAiAI2Lm4ZJgKYPLAkbGUYAhklgDYyAeYkYAOgAAAgAAUAAAAAAEAACgAAAAAAAAAAA==

> <PUBCHEM_IUPAC_OPENEYE_NAME>
(2S)-5-guanidino-2-[[(2S)-5-guanidino-2-[[(2S)-5-guanidino-2-[[(2S)-5-guanidino-2-[[(2S)-2-[[(2S)-2-[[(2S)-2-(5-isoquinolylsulfonylamino)propanoyl]amino]propanoyl]amino]propanoyl]amino]pentanoyl]amino]pentanoyl]amino]pentanoyl]amino]pentanoic acid

> <PUBCHEM_IUPAC_CAS_NAME>
(2S)-5-(diaminomethylideneamino)-2-[[(2S)-5-(diaminomethylideneamino)-2-[[(2S)-5-(diaminomethylideneamino)-2-[[(2S)-5-(diaminomethylideneamino)-2-[[(2S)-2-[[(2S)-2-[[(2S)-2-(5-isoquinolinylsulfonylamino)-1-oxopropyl]amino]-1-oxopropyl]amino]-1-oxopropyl]amino]-1-oxopentyl]amino]-1-oxopentyl]amino]-1-oxopentyl]amino]pentanoic acid

> <PUBCHEM_IUPAC_NAME_MARKUP>
(2<I>S</I>)-5-(diaminomethylideneamino)-2-[[(2<I>S</I>)-5-(diaminomethylideneamino)-2-[[(2<I>S</I>)-5-(diaminomethylideneamino)-2-[[(2<I>S</I>)-5-(diaminomethylideneamino)-2-[[(2<I>S</I>)-2-[[(2<I>S</I>)-2-[[(2<I>S</I>)-2-(isoquinolin-5-ylsulfonylamino)propanoyl]amino]propanoyl]amino]propanoyl]amino]pentanoyl]amino]pentanoyl]amino]pentanoyl]amino]pentanoic acid

> <PUBCHEM_IUPAC_NAME>
(2S)-5-(diaminomethylideneamino)-2-[[(2S)-5-(diaminomethylideneamino)-2-[[(2S)-5-(diaminomethylideneamino)-2-[[(2S)-5-(diaminomethylideneamino)-2-[[(2S)-2-[[(2S)-2-[[(2S)-2-(isoquinolin-5-ylsulfonylamino)propanoyl]amino]propanoyl]amino]propanoyl]amino]pentanoyl]amino]pentanoyl]amino]pentanoyl]amino]pentanoic acid

> <PUBCHEM_IUPAC_SYSTEMATIC_NAME>
(2S)-5-[bis(azanyl)methylideneamino]-2-[[(2S)-5-[bis(azanyl)methylideneamino]-2-[[(2S)-5-[bis(azanyl)methylideneamino]-2-[[(2S)-5-[bis(azanyl)methylideneamino]-2-[[(2S)-2-[[(2S)-2-[[(2S)-2-(isoquinolin-5-ylsulfonylamino)propanoyl]amino]propanoyl]amino]propanoyl]amino]pentanoyl]amino]pentanoyl]amino]pentanoyl]amino]pentanoic acid

> <PUBCHEM_IUPAC_TRADITIONAL_NAME>
(2S)-5-guanidino-2-[[(2S)-5-guanidino-2-[[(2S)-5-guanidino-2-[[(2S)-5-guanidino-2-[[(2S)-2-[[(2S)-2-[[(2S)-2-(5-isoquinolylsulfonylamino)propanoyl]amino]propanoyl]amino]propanoyl]amino]pentanoyl]amino]pentanoyl]amino]pentanoyl]amino]valeric acid

> <PUBCHEM_IUPAC_INCHI>
InChI=1S/C42H70N20O10S/c1-22(57-34(65)24(3)62-73(71,72)31-14-4-9-25-21-51-20-15-26(25)31)32(63)56-23(2)33(64)58-27(10-5-16-52-39(43)44)35(66)59-28(11-6-17-53-40(45)46)36(67)60-29(12-7-18-54-41(47)48)37(68)61-30(38(69)70)13-8-19-55-42(49)50/h4,9,14-15,20-24,27-30,62H,5-8,10-13,16-19H2,1-3H3,(H,56,63)(H,57,65)(H,58,64)(H,59,66)(H,60,67)(H,61,68)(H,69,70)(H4,43,44,52)(H4,45,46,53)(H4,47,48,54)(H4,49,50,55)/t22-,23-,24-,27-,28-,29-,30-/m0/s1

> <PUBCHEM_IUPAC_INCHIKEY>
IEHYLJPTZQIXGJ-DPLGUDNSSA-N

> <PUBCHEM_XLOGP3_AA>
-5.2

> <PUBCHEM_EXACT_MASS>
1046.53044968

> <PUBCHEM_MOLECULAR_FORMULA>
C42H70N20O10S

> <PUBCHEM_MOLECULAR_WEIGHT>
1047.2

> <PUBCHEM_SMILES>
C[C@@H](C(=O)N[C@@H](C)C(=O)N[C@@H](CCCN=C(N)N)C(=O)N[C@@H](CCCN=C(N)N)C(=O)N[C@@H](CCCN=C(N)N)C(=O)N[C@@H](CCCN=C(N)N)C(=O)O)NC(=O)[C@H](C)NS(=O)(=O)C1=CC=CC2=C1C=CN=C2

> <PUBCHEM_OPENEYE_CAN_SMILES>
CC(C(=O)NC(C)C(=O)NC(CCCN=C(N)N)C(=O)NC(CCCN=C(N)N)C(=O)NC(CCCN=C(N)N)C(=O)NC(CCCN=C(N)N)C(=O)O)NC(=O)C(C)NS(=O)(=O)C1=CC=CC2=C1C=CN=C2

> <PUBCHEM_OPENEYE_ISO_SMILES>
C[C@@H](C(=O)N[C@@H](C)C(=O)N[C@@H](CCCN=C(N)N)C(=O)N[C@@H](CCCN=C(N)N)C(=O)N[C@@H](CCCN=C(N)N)C(=O)N[C@@H](CCCN=C(N)N)C(=O)O)NC(=O)[C@H](C)NS(=O)(=O)C1=CC=CC2=C1C=CN=C2

> <PUBCHEM_CACTVS_TPSA>
537

> <PUBCHEM_MONOISOTOPIC_WEIGHT>
1046.53044968

> <PUBCHEM_TOTAL_CHARGE>
0

> <PUBCHEM_HEAVY_ATOM_COUNT>
73

> <PUBCHEM_ATOM_DEF_STEREO_COUNT>
7

> <PUBCHEM_ATOM_UDEF_STEREO_COUNT>
0

> <PUBCHEM_BOND_DEF_STEREO_COUNT>
0

> <PUBCHEM_BOND_UDEF_STEREO_COUNT>
0

> <PUBCHEM_ISOTOPIC_ATOM_COUNT>
0

> <PUBCHEM_COMPONENT_COUNT>
1

> <PUBCHEM_CACTVS_TAUTO_COUNT>
-1

> <PUBCHEM_COORDINATE_TYPE>
1
5
255

> <PUBCHEM_BONDANNOTATIONS>
32  12  6
33  13  5
35  14  5
44  15  6
49  16  6
55  20  5
57  22  6
31  72  8
31  73  8
64  65  8
64  68  8
65  67  8
65  71  8
67  69  8
67  72  8
68  70  8
69  70  8
71  73  8

$$$$
