49830848
  -OEChem-03202503032D

 61 64  0     0  0  0  0  0  0999 V2000
    4.8299    2.4024    0.0000 O   0  0  0  0  0  0  0  0  0  0  0  0
    7.6279   -0.9260    0.0000 O   0  0  0  0  0  0  0  0  0  0  0  0
    7.6279   -2.6580    0.0000 O   0  0  0  0  0  0  0  0  0  0  0  0
    5.5443   -2.5967    0.0000 N   0  0  0  0  0  0  0  0  0  0  0  0
    5.5443   -0.9873    0.0000 C   0  0  0  0  0  0  0  0  0  0  0  0
    4.5981   -1.2920    0.0000 C   0  0  0  0  0  0  0  0  0  0  0  0
    5.8550   -0.0368    0.0000 C   0  0  0  0  0  0  0  0  0  0  0  0
    4.5981   -2.2920    0.0000 C   0  0  0  0  0  0  0  0  0  0  0  0
    6.1279   -1.7920    0.0000 C   0  0  0  0  0  0  0  0  0  0  0  0
    5.1871    0.7075    0.0000 C   0  0  0  0  0  0  0  0  0  0  0  0
    3.7320   -2.7920    0.0000 C   0  0  0  0  0  0  0  0  0  0  0  0
    3.7320   -0.7920    0.0000 C   0  0  0  0  0  0  0  0  0  0  0  0
    5.4978    1.6581    0.0000 C   0  0  0  0  0  0  0  0  0  0  0  0
    3.7320   -3.7920    0.0000 C   0  0  0  0  0  0  0  0  0  0  0  0
    2.8660   -2.2920    0.0000 C   0  0  0  0  0  0  0  0  0  0  0  0
    2.8660   -1.2920    0.0000 C   0  0  0  0  0  0  0  0  0  0  0  0
    7.1279   -1.7920    0.0000 C   0  0  0  0  0  0  0  0  0  0  0  0
    2.8660   -4.2920    0.0000 C   0  0  0  0  0  0  0  0  0  0  0  0
    5.1406    3.3529    0.0000 C   0  0  0  0  0  0  0  0  0  0  0  0
    4.5981   -4.2920    0.0000 C   0  0  0  0  0  0  0  0  0  0  0  0
    6.1191    3.5591    0.0000 C   0  0  0  0  0  0  0  0  0  0  0  0
    6.4298    4.5096    0.0000 C   0  0  0  0  0  0  0  0  0  0  0  0
    2.8660   -5.2920    0.0000 C   0  0  0  0  0  0  0  0  0  0  0  0
    4.4727    4.0972    0.0000 C   0  0  0  0  0  0  0  0  0  0  0  0
    2.0000   -3.7920    0.0000 C   0  0  0  0  0  0  0  0  0  0  0  0
    4.7834    5.0477    0.0000 C   0  0  0  0  0  0  0  0  0  0  0  0
    4.5981   -5.2920    0.0000 C   0  0  0  0  0  0  0  0  0  0  0  0
    5.7619    5.2539    0.0000 C   0  0  0  0  0  0  0  0  0  0  0  0
    3.7320   -5.7920    0.0000 C   0  0  0  0  0  0  0  0  0  0  0  0
    6.7870    2.8148    0.0000 C   0  0  0  0  0  0  0  0  0  0  0  0
    7.4083    4.7158    0.0000 C   0  0  0  0  0  0  0  0  0  0  0  0
    4.1156    5.7920    0.0000 C   0  0  0  0  0  0  0  0  0  0  0  0
    6.4019   -0.3288    0.0000 H   0  0  0  0  0  0  0  0  0  0  0  0
    6.2375    0.4511    0.0000 H   0  0  0  0  0  0  0  0  0  0  0  0
    4.6402    0.9996    0.0000 H   0  0  0  0  0  0  0  0  0  0  0  0
    4.8046    0.2196    0.0000 H   0  0  0  0  0  0  0  0  0  0  0  0
    5.7369   -3.1861    0.0000 H   0  0  0  0  0  0  0  0  0  0  0  0
    3.7320   -0.1720    0.0000 H   0  0  0  0  0  0  0  0  0  0  0  0
    6.0447    1.3660    0.0000 H   0  0  0  0  0  0  0  0  0  0  0  0
    5.8803    2.1460    0.0000 H   0  0  0  0  0  0  0  0  0  0  0  0
    2.3291   -2.6020    0.0000 H   0  0  0  0  0  0  0  0  0  0  0  0
    2.3291   -0.9820    0.0000 H   0  0  0  0  0  0  0  0  0  0  0  0
    5.1350   -3.9820    0.0000 H   0  0  0  0  0  0  0  0  0  0  0  0
    2.3291   -5.6020    0.0000 H   0  0  0  0  0  0  0  0  0  0  0  0
    3.8661    3.9693    0.0000 H   0  0  0  0  0  0  0  0  0  0  0  0
    2.3100   -3.2551    0.0000 H   0  0  0  0  0  0  0  0  0  0  0  0
    1.4631   -3.4820    0.0000 H   0  0  0  0  0  0  0  0  0  0  0  0
    1.6900   -4.3290    0.0000 H   0  0  0  0  0  0  0  0  0  0  0  0
    5.1350   -5.6020    0.0000 H   0  0  0  0  0  0  0  0  0  0  0  0
    5.9545    5.8432    0.0000 H   0  0  0  0  0  0  0  0  0  0  0  0
    3.7320   -6.4120    0.0000 H   0  0  0  0  0  0  0  0  0  0  0  0
    6.3255    2.4007    0.0000 H   0  0  0  0  0  0  0  0  0  0  0  0
    7.2010    2.3533    0.0000 H   0  0  0  0  0  0  0  0  0  0  0  0
    7.2484    3.2289    0.0000 H   0  0  0  0  0  0  0  0  0  0  0  0
    7.5361    4.1092    0.0000 H   0  0  0  0  0  0  0  0  0  0  0  0
    8.0149    4.8437    0.0000 H   0  0  0  0  0  0  0  0  0  0  0  0
    7.2804    5.3225    0.0000 H   0  0  0  0  0  0  0  0  0  0  0  0
    8.2479   -0.9260    0.0000 H   0  0  0  0  0  0  0  0  0  0  0  0
    4.5770    6.2061    0.0000 H   0  0  0  0  0  0  0  0  0  0  0  0
    3.7015    6.2535    0.0000 H   0  0  0  0  0  0  0  0  0  0  0  0
    3.6541    5.3780    0.0000 H   0  0  0  0  0  0  0  0  0  0  0  0
  1 13  1  0  0  0  0
  1 19  1  0  0  0  0
  2 17  1  0  0  0  0
  2 58  1  0  0  0  0
  3 17  2  0  0  0  0
  4  8  1  0  0  0  0
  4  9  1  0  0  0  0
  4 37  1  0  0  0  0
  5  6  1  0  0  0  0
  5  7  1  0  0  0  0
  5  9  2  0  0  0  0
  6  8  2  0  0  0  0
  6 12  1  0  0  0  0
  7 10  1  0  0  0  0
  7 33  1  0  0  0  0
  7 34  1  0  0  0  0
  8 11  1  0  0  0  0
  9 17  1  0  0  0  0
 10 13  1  0  0  0  0
 10 35  1  0  0  0  0
 10 36  1  0  0  0  0
 11 14  1  0  0  0  0
 11 15  2  0  0  0  0
 12 16  2  0  0  0  0
 12 38  1  0  0  0  0
 13 39  1  0  0  0  0
 13 40  1  0  0  0  0
 14 18  1  0  0  0  0
 14 20  2  0  0  0  0
 15 16  1  0  0  0  0
 15 41  1  0  0  0  0
 16 42  1  0  0  0  0
 18 23  2  0  0  0  0
 18 25  1  0  0  0  0
 19 21  1  0  0  0  0
 19 24  2  0  0  0  0
 20 27  1  0  0  0  0
 20 43  1  0  0  0  0
 21 22  2  0  0  0  0
 21 30  1  0  0  0  0
 22 28  1  0  0  0  0
 22 31  1  0  0  0  0
 23 29  1  0  0  0  0
 23 44  1  0  0  0  0
 24 26  1  0  0  0  0
 24 45  1  0  0  0  0
 25 46  1  0  0  0  0
 25 47  1  0  0  0  0
 25 48  1  0  0  0  0
 26 28  2  0  0  0  0
 26 32  1  0  0  0  0
 27 29  2  0  0  0  0
 27 49  1  0  0  0  0
 28 50  1  0  0  0  0
 29 51  1  0  0  0  0
 30 52  1  0  0  0  0
 30 53  1  0  0  0  0
 30 54  1  0  0  0  0
 31 55  1  0  0  0  0
 31 56  1  0  0  0  0
 31 57  1  0  0  0  0
 32 59  1  0  0  0  0
 32 60  1  0  0  0  0
 32 61  1  0  0  0  0
M  END
> <PUBCHEM_COMPOUND_CID>
49830848

> <PUBCHEM_COMPOUND_CANONICALIZED>
1

> <PUBCHEM_CACTVS_COMPLEXITY>
624

> <PUBCHEM_CACTVS_HBOND_ACCEPTOR>
3

> <PUBCHEM_CACTVS_HBOND_DONOR>
2

> <PUBCHEM_CACTVS_ROTATABLE_BOND>
7

> <PUBCHEM_CACTVS_SUBSKEYS>
AAADceB6MAAAAAAAAAAAAAAAAAAAAWAAAAAwYMAAAAAAAFgB9AAAHgAQCAAADAyhngIyzvLJlgCoAyTyTASCiCAnICAImSGmTNgOJvLEtbuGeSjkwBHY+QeY2fOewAADAAAaAACAAAYAADQAAAAAAAAAAA==

> <PUBCHEM_IUPAC_OPENEYE_NAME>
7-(o-tolyl)-3-[3-(2,3,5-trimethylphenoxy)propyl]-1H-indole-2-carboxylic acid

> <PUBCHEM_IUPAC_CAS_NAME>
7-(2-methylphenyl)-3-[3-(2,3,5-trimethylphenoxy)propyl]-1H-indole-2-carboxylic acid

> <PUBCHEM_IUPAC_NAME_MARKUP>
7-(2-methylphenyl)-3-[3-(2,3,5-trimethylphenoxy)propyl]-1<I>H</I>-indole-2-carboxylic acid

> <PUBCHEM_IUPAC_NAME>
7-(2-methylphenyl)-3-[3-(2,3,5-trimethylphenoxy)propyl]-1H-indole-2-carboxylic acid

> <PUBCHEM_IUPAC_SYSTEMATIC_NAME>
7-(2-methylphenyl)-3-[3-(2,3,5-trimethylphenoxy)propyl]-1H-indole-2-carboxylic acid

> <PUBCHEM_IUPAC_TRADITIONAL_NAME>
7-(o-tolyl)-3-[3-(2,3,5-trimethylphenoxy)propyl]-1H-indole-2-carboxylic acid

> <PUBCHEM_IUPAC_INCHI>
InChI=1S/C28H29NO3/c1-17-15-19(3)20(4)25(16-17)32-14-8-13-24-23-12-7-11-22(21-10-6-5-9-18(21)2)26(23)29-27(24)28(30)31/h5-7,9-12,15-16,29H,8,13-14H2,1-4H3,(H,30,31)

> <PUBCHEM_IUPAC_INCHIKEY>
UEWCRBHXCIZHHV-UHFFFAOYSA-N

> <PUBCHEM_XLOGP3_AA>
7.3

> <PUBCHEM_EXACT_MASS>
427.21474379

> <PUBCHEM_MOLECULAR_FORMULA>
C28H29NO3

> <PUBCHEM_MOLECULAR_WEIGHT>
427.5

> <PUBCHEM_SMILES>
CC1=CC=CC=C1C2=CC=CC3=C2NC(=C3CCCOC4=CC(=CC(=C4C)C)C)C(=O)O

> <PUBCHEM_OPENEYE_CAN_SMILES>
CC1=CC=CC=C1C2=CC=CC3=C2NC(=C3CCCOC4=CC(=CC(=C4C)C)C)C(=O)O

> <PUBCHEM_OPENEYE_ISO_SMILES>
CC1=CC=CC=C1C2=CC=CC3=C2NC(=C3CCCOC4=CC(=CC(=C4C)C)C)C(=O)O

> <PUBCHEM_CACTVS_TPSA>
62.3

> <PUBCHEM_MONOISOTOPIC_WEIGHT>
427.21474379

> <PUBCHEM_TOTAL_CHARGE>
0

> <PUBCHEM_HEAVY_ATOM_COUNT>
32

> <PUBCHEM_ATOM_DEF_STEREO_COUNT>
0

> <PUBCHEM_ATOM_UDEF_STEREO_COUNT>
0

> <PUBCHEM_BOND_DEF_STEREO_COUNT>
0

> <PUBCHEM_BOND_UDEF_STEREO_COUNT>
0

> <PUBCHEM_ISOTOPIC_ATOM_COUNT>
0

> <PUBCHEM_COMPONENT_COUNT>
1

> <PUBCHEM_CACTVS_TAUTO_COUNT>
-1

> <PUBCHEM_COORDINATE_TYPE>
1
5
255

> <PUBCHEM_BONDANNOTATIONS>
11  15  8
12  16  8
14  18  8
14  20  8
15  16  8
18  23  8
19  21  8
19  24  8
20  27  8
21  22  8
22  28  8
23  29  8
24  26  8
26  28  8
27  29  8
4  8  8
4  9  8
5  6  8
5  9  8
6  12  8
6  8  8
8  11  8

$$$$
