49830400
  -OEChem-03202503532D

 69 75  0     0  0  0  0  0  0999 V2000
    7.0000   -4.5378    0.0000 Cl  0  0  0  0  0  0  0  0  0  0  0  0
   10.4851   -3.6105    0.0000 S   0  0  0  0  0  0  0  0  0  0  0  0
    2.0000   -4.5378    0.0000 F   0  0  0  0  0  0  0  0  0  0  0  0
    8.0719    5.1959    0.0000 O   0  0  0  0  0  0  0  0  0  0  0  0
    3.5000   -5.4038    0.0000 O   0  0  0  0  0  0  0  0  0  0  0  0
    6.7337    3.7096    0.0000 N   0  0  0  0  0  0  0  0  0  0  0  0
    9.5388   -2.3057    0.0000 N   0  0  0  0  0  0  0  0  0  0  0  0
    6.0135    0.3212    0.0000 N   0  0  0  0  0  0  0  0  0  0  0  0
    8.5878   -3.6148    0.0000 N   0  0  0  0  0  0  0  0  0  0  0  0
    7.3006   -0.8378    0.0000 N   0  0  0  0  0  0  0  0  0  0  0  0
    7.6607    0.8564    0.0000 N   0  0  0  0  0  0  0  0  0  0  0  0
    5.0000   -4.5378    0.0000 N   0  0  0  0  0  0  0  0  0  0  0  0
    6.4247    4.6607    0.0000 C   0  0  0  0  0  0  0  0  0  0  0  0
    7.7118    3.5017    0.0000 C   0  0  0  0  0  0  0  0  0  0  0  0
    7.0938    5.4038    0.0000 C   0  0  0  0  0  0  0  0  0  0  0  0
    8.3810    4.2448    0.0000 C   0  0  0  0  0  0  0  0  0  0  0  0
    6.0646    2.9665    0.0000 C   0  0  0  0  0  0  0  0  0  0  0  0
    6.3736    2.0154    0.0000 C   0  0  0  0  0  0  0  0  0  0  0  0
    5.0864    3.1744    0.0000 C   0  0  0  0  0  0  0  0  0  0  0  0
    8.5878   -1.9967    0.0000 C   0  0  0  0  0  0  0  0  0  0  0  0
    5.7044    1.2723    0.0000 C   0  0  0  0  0  0  0  0  0  0  0  0
    8.0000   -2.8057    0.0000 C   0  0  0  0  0  0  0  0  0  0  0  0
    4.4173    2.4312    0.0000 C   0  0  0  0  0  0  0  0  0  0  0  0
    9.5388   -3.3057    0.0000 C   0  0  0  0  0  0  0  0  0  0  0  0
    8.2788   -1.0457    0.0000 C   0  0  0  0  0  0  0  0  0  0  0  0
    7.0000   -2.8057    0.0000 C   0  0  0  0  0  0  0  0  0  0  0  0
    4.7263    1.4802    0.0000 C   0  0  0  0  0  0  0  0  0  0  0  0
   10.4851   -2.0010    0.0000 C   0  0  0  0  0  0  0  0  0  0  0  0
    6.9916    0.1133    0.0000 C   0  0  0  0  0  0  0  0  0  0  0  0
    6.5000   -3.6718    0.0000 C   0  0  0  0  0  0  0  0  0  0  0  0
    6.5000   -1.9397    0.0000 C   0  0  0  0  0  0  0  0  0  0  0  0
    8.9479   -0.3025    0.0000 C   0  0  0  0  0  0  0  0  0  0  0  0
    5.5000   -3.6718    0.0000 C   0  0  0  0  0  0  0  0  0  0  0  0
   11.0687   -2.8057    0.0000 C   0  0  0  0  0  0  0  0  0  0  0  0
    5.5000   -1.9397    0.0000 C   0  0  0  0  0  0  0  0  0  0  0  0
    5.0000   -2.8057    0.0000 C   0  0  0  0  0  0  0  0  0  0  0  0
    8.6389    0.6485    0.0000 C   0  0  0  0  0  0  0  0  0  0  0  0
    4.0000   -4.5378    0.0000 C   0  0  0  0  0  0  0  0  0  0  0  0
    3.5000   -3.6718    0.0000 C   0  0  0  0  0  0  0  0  0  0  0  0
    2.5000   -3.6718    0.0000 C   0  0  0  0  0  0  0  0  0  0  0  0
    4.0000   -2.8057    0.0000 C   0  0  0  0  0  0  0  0  0  0  0  0
    2.0000   -2.8057    0.0000 C   0  0  0  0  0  0  0  0  0  0  0  0
    3.5000   -1.9397    0.0000 C   0  0  0  0  0  0  0  0  0  0  0  0
    2.5000   -1.9397    0.0000 C   0  0  0  0  0  0  0  0  0  0  0  0
    6.0430    5.1492    0.0000 H   0  0  0  0  0  0  0  0  0  0  0  0
    5.8772    4.3696    0.0000 H   0  0  0  0  0  0  0  0  0  0  0  0
    7.4796    2.9268    0.0000 H   0  0  0  0  0  0  0  0  0  0  0  0
    8.2376    3.1732    0.0000 H   0  0  0  0  0  0  0  0  0  0  0  0
    7.3260    5.9787    0.0000 H   0  0  0  0  0  0  0  0  0  0  0  0
    6.5680    5.7324    0.0000 H   0  0  0  0  0  0  0  0  0  0  0  0
    8.7627    3.7563    0.0000 H   0  0  0  0  0  0  0  0  0  0  0  0
    8.9284    4.5359    0.0000 H   0  0  0  0  0  0  0  0  0  0  0  0
    6.9800    1.8865    0.0000 H   0  0  0  0  0  0  0  0  0  0  0  0
    4.8948    3.7640    0.0000 H   0  0  0  0  0  0  0  0  0  0  0  0
    3.8108    2.5601    0.0000 H   0  0  0  0  0  0  0  0  0  0  0  0
    4.3114    1.0194    0.0000 H   0  0  0  0  0  0  0  0  0  0  0  0
    5.5986   -0.1395    0.0000 H   0  0  0  0  0  0  0  0  0  0  0  0
   10.6777   -1.4117    0.0000 H   0  0  0  0  0  0  0  0  0  0  0  0
    6.8100   -1.4028    0.0000 H   0  0  0  0  0  0  0  0  0  0  0  0
    9.5544   -0.4314    0.0000 H   0  0  0  0  0  0  0  0  0  0  0  0
   11.6887   -2.8057    0.0000 H   0  0  0  0  0  0  0  0  0  0  0  0
    5.1900   -1.4028    0.0000 H   0  0  0  0  0  0  0  0  0  0  0  0
    4.3800   -2.8057    0.0000 H   0  0  0  0  0  0  0  0  0  0  0  0
    9.0537    1.1093    0.0000 H   0  0  0  0  0  0  0  0  0  0  0  0
    5.3100   -5.0747    0.0000 H   0  0  0  0  0  0  0  0  0  0  0  0
    4.6200   -2.8057    0.0000 H   0  0  0  0  0  0  0  0  0  0  0  0
    1.3800   -2.8057    0.0000 H   0  0  0  0  0  0  0  0  0  0  0  0
    3.8100   -1.4028    0.0000 H   0  0  0  0  0  0  0  0  0  0  0  0
    2.1900   -1.4028    0.0000 H   0  0  0  0  0  0  0  0  0  0  0  0
  1 30  1  0  0  0  0
  2 24  1  0  0  0  0
  2 34  1  0  0  0  0
  3 40  1  0  0  0  0
  4 15  1  0  0  0  0
  4 16  1  0  0  0  0
  5 38  2  0  0  0  0
  6 13  1  0  0  0  0
  6 14  1  0  0  0  0
  6 17  1  0  0  0  0
  7 20  1  0  0  0  0
  7 24  1  0  0  0  0
  7 28  1  0  0  0  0
  8 21  1  0  0  0  0
  8 29  1  0  0  0  0
  8 57  1  0  0  0  0
  9 22  1  0  0  0  0
  9 24  2  0  0  0  0
 10 25  2  0  0  0  0
 10 29  1  0  0  0  0
 11 29  2  0  0  0  0
 11 37  1  0  0  0  0
 12 33  1  0  0  0  0
 12 38  1  0  0  0  0
 12 65  1  0  0  0  0
 13 15  1  0  0  0  0
 13 45  1  0  0  0  0
 13 46  1  0  0  0  0
 14 16  1  0  0  0  0
 14 47  1  0  0  0  0
 14 48  1  0  0  0  0
 15 49  1  0  0  0  0
 15 50  1  0  0  0  0
 16 51  1  0  0  0  0
 16 52  1  0  0  0  0
 17 18  1  0  0  0  0
 17 19  2  0  0  0  0
 18 21  2  0  0  0  0
 18 53  1  0  0  0  0
 19 23  1  0  0  0  0
 19 54  1  0  0  0  0
 20 22  2  0  0  0  0
 20 25  1  0  0  0  0
 21 27  1  0  0  0  0
 22 26  1  0  0  0  0
 23 27  2  0  0  0  0
 23 55  1  0  0  0  0
 25 32  1  0  0  0  0
 26 30  2  0  0  0  0
 26 31  1  0  0  0  0
 27 56  1  0  0  0  0
 28 34  2  0  0  0  0
 28 58  1  0  0  0  0
 30 33  1  0  0  0  0
 31 35  2  0  0  0  0
 31 59  1  0  0  0  0
 32 37  2  0  0  0  0
 32 60  1  0  0  0  0
 33 36  2  0  0  0  0
 34 61  1  0  0  0  0
 35 36  1  0  0  0  0
 35 62  1  0  0  0  0
 36 63  1  0  0  0  0
 37 64  1  0  0  0  0
 38 39  1  0  0  0  0
 39 40  1  0  0  0  0
 39 41  2  0  0  0  0
 40 42  2  0  0  0  0
 41 43  1  0  0  0  0
 41 66  1  0  0  0  0
 42 44  1  0  0  0  0
 42 67  1  0  0  0  0
 43 44  2  0  0  0  0
 43 68  1  0  0  0  0
 44 69  1  0  0  0  0
M  END
> <PUBCHEM_COMPOUND_CID>
49830400

> <PUBCHEM_COMPOUND_CANONICALIZED>
1

> <PUBCHEM_CACTVS_COMPLEXITY>
968

> <PUBCHEM_CACTVS_HBOND_ACCEPTOR>
9

> <PUBCHEM_CACTVS_HBOND_DONOR>
2

> <PUBCHEM_CACTVS_ROTATABLE_BOND>
7

> <PUBCHEM_CACTVS_SUBSKEYS>
AAADceB/sQBEAAAAAAAAAAAAAAAAAWLAAAA8eMECAAAWAAAB/AAAHwYQAAAADArl3i690ZfMHAisAzV3dACC8K11HrhJ2C04dtiKaPLB39HXJQholALYyacYiMCOAAAAQAQBABAAAACACAIAIAAAAAAAAA==

> <PUBCHEM_IUPAC_OPENEYE_NAME>
N-[2-chloro-3-[5-[2-(3-morpholinoanilino)pyrimidin-4-yl]imidazo[2,1-b]thiazol-6-yl]phenyl]-2-fluoro-benzamide

> <PUBCHEM_IUPAC_CAS_NAME>
N-[2-chloro-3-[5-[2-[3-(4-morpholinyl)anilino]-4-pyrimidinyl]-6-imidazo[2,1-b]thiazolyl]phenyl]-2-fluorobenzamide

> <PUBCHEM_IUPAC_NAME_MARKUP>
<I>N</I>-[2-chloro-3-[5-[2-(3-morpholin-4-ylanilino)pyrimidin-4-yl]imidazo[2,1-b][1,3]thiazol-6-yl]phenyl]-2-fluorobenzamide

> <PUBCHEM_IUPAC_NAME>
N-[2-chloro-3-[5-[2-(3-morpholin-4-ylanilino)pyrimidin-4-yl]imidazo[2,1-b][1,3]thiazol-6-yl]phenyl]-2-fluorobenzamide

> <PUBCHEM_IUPAC_SYSTEMATIC_NAME>
N-[2-chloranyl-3-[5-[2-[(3-morpholin-4-ylphenyl)amino]pyrimidin-4-yl]imidazo[2,1-b][1,3]thiazol-6-yl]phenyl]-2-fluoranyl-benzamide

> <PUBCHEM_IUPAC_TRADITIONAL_NAME>
N-[2-chloro-3-[5-[2-(3-morpholinoanilino)pyrimidin-4-yl]imidazo[2,1-b]thiazol-6-yl]phenyl]-2-fluoro-benzamide

> <PUBCHEM_IUPAC_INCHI>
InChI=1S/C32H25ClFN7O2S/c33-27-23(8-4-10-25(27)37-30(42)22-7-1-2-9-24(22)34)28-29(41-15-18-44-32(41)39-28)26-11-12-35-31(38-26)36-20-5-3-6-21(19-20)40-13-16-43-17-14-40/h1-12,15,18-19H,13-14,16-17H2,(H,37,42)(H,35,36,38)

> <PUBCHEM_IUPAC_INCHIKEY>
FXXMEMJTLOATRB-UHFFFAOYSA-N

> <PUBCHEM_XLOGP3_AA>
6.7

> <PUBCHEM_EXACT_MASS>
625.1463001

> <PUBCHEM_MOLECULAR_FORMULA>
C32H25ClFN7O2S

> <PUBCHEM_MOLECULAR_WEIGHT>
626.1

> <PUBCHEM_SMILES>
C1COCCN1C2=CC=CC(=C2)NC3=NC=CC(=N3)C4=C(N=C5N4C=CS5)C6=C(C(=CC=C6)NC(=O)C7=CC=CC=C7F)Cl

> <PUBCHEM_OPENEYE_CAN_SMILES>
C1COCCN1C2=CC=CC(=C2)NC3=NC=CC(=N3)C4=C(N=C5N4C=CS5)C6=C(C(=CC=C6)NC(=O)C7=CC=CC=C7F)Cl

> <PUBCHEM_OPENEYE_ISO_SMILES>
C1COCCN1C2=CC=CC(=C2)NC3=NC=CC(=N3)C4=C(N=C5N4C=CS5)C6=C(C(=CC=C6)NC(=O)C7=CC=CC=C7F)Cl

> <PUBCHEM_CACTVS_TPSA>
125

> <PUBCHEM_MONOISOTOPIC_WEIGHT>
625.1463001

> <PUBCHEM_TOTAL_CHARGE>
0

> <PUBCHEM_HEAVY_ATOM_COUNT>
44

> <PUBCHEM_ATOM_DEF_STEREO_COUNT>
0

> <PUBCHEM_ATOM_UDEF_STEREO_COUNT>
0

> <PUBCHEM_BOND_DEF_STEREO_COUNT>
0

> <PUBCHEM_BOND_UDEF_STEREO_COUNT>
0

> <PUBCHEM_ISOTOPIC_ATOM_COUNT>
0

> <PUBCHEM_COMPONENT_COUNT>
1

> <PUBCHEM_CACTVS_TAUTO_COUNT>
-1

> <PUBCHEM_COORDINATE_TYPE>
1
5
255

> <PUBCHEM_BONDANNOTATIONS>
10  25  8
10  29  8
11  29  8
11  37  8
17  18  8
17  19  8
18  21  8
19  23  8
2  24  8
2  34  8
20  22  8
21  27  8
23  27  8
25  32  8
26  30  8
26  31  8
28  34  8
30  33  8
31  35  8
32  37  8
33  36  8
35  36  8
39  40  8
39  41  8
40  42  8
41  43  8
42  44  8
43  44  8
7  20  8
7  24  8
7  28  8
9  22  8
9  24  8

$$$$
