23295827
  -OEChem-03202503372D

 42 44  0     0  0  0  0  0  0999 V2000
    7.3958   -3.5330    0.0000 O   0  0  0  0  0  0  0  0  0  0  0  0
    3.5000   -2.3990    0.0000 O   0  0  0  0  0  0  0  0  0  0  0  0
    3.5000   -0.6669    0.0000 O   0  0  0  0  0  0  0  0  0  0  0  0
   10.9119    0.5088    0.0000 O   0  5  0  0  0  0  0  0  0  0  0  0
   10.0517    2.0121    0.0000 O   0  0  0  0  0  0  0  0  0  0  0  0
    6.5419    2.0296    0.0000 O   0  0  0  0  0  0  0  0  0  0  0  0
    6.5298   -1.0330    0.0000 N   0  0  0  0  0  0  0  0  0  0  0  0
    8.2619   -2.0330    0.0000 N   0  0  0  0  0  0  0  0  0  0  0  0
    5.5836   -2.3377    0.0000 N   0  0  0  0  0  0  0  0  0  0  0  0
    8.2740    2.0363    0.0000 N   0  0  0  0  0  0  0  0  0  0  0  0
   10.0479    1.0122    0.0000 N   0  3  0  0  0  0  0  0  0  0  0  0
    7.3958   -0.5330    0.0000 C   0  0  0  0  0  0  0  0  0  0  0  0
    8.2619   -1.0330    0.0000 C   0  0  0  0  0  0  0  0  0  0  0  0
    5.5836   -0.7282    0.0000 C   0  0  0  0  0  0  0  0  0  0  0  0
    6.5298   -2.0330    0.0000 C   0  0  0  0  0  0  0  0  0  0  0  0
    7.3798    0.5086    0.0000 C   0  0  0  0  0  0  0  0  0  0  0  0
    5.0000   -1.5330    0.0000 C   0  0  0  0  0  0  0  0  0  0  0  0
    7.3958   -2.5330    0.0000 C   0  0  0  0  0  0  0  0  0  0  0  0
    9.1719   -0.5261    0.0000 C   0  0  0  0  0  0  0  0  0  0  0  0
    8.2778    1.0363    0.0000 C   0  0  0  0  0  0  0  0  0  0  0  0
    9.1799    0.5155    0.0000 C   0  0  0  0  0  0  0  0  0  0  0  0
    5.2730    0.2223    0.0000 C   0  0  0  0  0  0  0  0  0  0  0  0
    4.0000   -1.5330    0.0000 C   0  0  0  0  0  0  0  0  0  0  0  0
    7.4060    2.5330    0.0000 C   0  0  0  0  0  0  0  0  0  0  0  0
    2.5000   -2.3990    0.0000 C   0  0  0  0  0  0  0  0  0  0  0  0
    7.4022    3.5330    0.0000 C   0  0  0  0  0  0  0  0  0  0  0  0
    2.0000   -3.2650    0.0000 C   0  0  0  0  0  0  0  0  0  0  0  0
    6.8393    0.8123    0.0000 H   0  0  0  0  0  0  0  0  0  0  0  0
    8.7988   -2.3430    0.0000 H   0  0  0  0  0  0  0  0  0  0  0  0
    9.7052   -0.8423    0.0000 H   0  0  0  0  0  0  0  0  0  0  0  0
    5.8623    0.4149    0.0000 H   0  0  0  0  0  0  0  0  0  0  0  0
    5.0803    0.8116    0.0000 H   0  0  0  0  0  0  0  0  0  0  0  0
    4.6836    0.0297    0.0000 H   0  0  0  0  0  0  0  0  0  0  0  0
    8.8097    2.3484    0.0000 H   0  0  0  0  0  0  0  0  0  0  0  0
    2.6077   -1.7884    0.0000 H   0  0  0  0  0  0  0  0  0  0  0  0
    1.9174   -2.1869    0.0000 H   0  0  0  0  0  0  0  0  0  0  0  0
    8.0222    3.5353    0.0000 H   0  0  0  0  0  0  0  0  0  0  0  0
    7.3998    4.1530    0.0000 H   0  0  0  0  0  0  0  0  0  0  0  0
    6.7822    3.5306    0.0000 H   0  0  0  0  0  0  0  0  0  0  0  0
    1.4631   -2.9550    0.0000 H   0  0  0  0  0  0  0  0  0  0  0  0
    1.6900   -3.8019    0.0000 H   0  0  0  0  0  0  0  0  0  0  0  0
    2.5369   -3.5750    0.0000 H   0  0  0  0  0  0  0  0  0  0  0  0
  1 18  2  0  0  0  0
  2 23  1  0  0  0  0
  2 25  1  0  0  0  0
  3 23  2  0  0  0  0
  4 11  1  0  0  0  0
  5 11  2  0  0  0  0
  6 24  2  0  0  0  0
  7 12  1  0  0  0  0
  7 14  1  0  0  0  0
  7 15  1  0  0  0  0
  8 13  1  0  0  0  0
  8 18  1  0  0  0  0
  8 29  1  0  0  0  0
  9 15  2  0  0  0  0
  9 17  1  0  0  0  0
 10 20  1  0  0  0  0
 10 24  1  0  0  0  0
 10 34  1  0  0  0  0
 11 21  1  0  0  0  0
 12 13  1  0  0  0  0
 12 16  2  0  0  0  0
 13 19  2  0  0  0  0
 14 17  2  0  0  0  0
 14 22  1  0  0  0  0
 15 18  1  0  0  0  0
 16 20  1  0  0  0  0
 16 28  1  0  0  0  0
 17 23  1  0  0  0  0
 19 21  1  0  0  0  0
 19 30  1  0  0  0  0
 20 21  2  0  0  0  0
 22 31  1  0  0  0  0
 22 32  1  0  0  0  0
 22 33  1  0  0  0  0
 24 26  1  0  0  0  0
 25 27  1  0  0  0  0
 25 35  1  0  0  0  0
 25 36  1  0  0  0  0
 26 37  1  0  0  0  0
 26 38  1  0  0  0  0
 26 39  1  0  0  0  0
 27 40  1  0  0  0  0
 27 41  1  0  0  0  0
 27 42  1  0  0  0  0
M  CHG  2   4  -1  11   1
M  END
> <PUBCHEM_COMPOUND_CID>
23295827

> <PUBCHEM_COMPOUND_CANONICALIZED>
1

> <PUBCHEM_CACTVS_COMPLEXITY>
652

> <PUBCHEM_CACTVS_HBOND_ACCEPTOR>
7

> <PUBCHEM_CACTVS_HBOND_DONOR>
2

> <PUBCHEM_CACTVS_ROTATABLE_BOND>
4

> <PUBCHEM_CACTVS_SUBSKEYS>
AAADccB7uAAAAAAAAAAAAAAAAAAAAWAAAAA8QAAAAAAAAFixwAAAHgAUAAAACAihlwIz2JfcVACpASfyfwSCgC0nEqAhmAGwfMqKbnrA+PmXMYhulILY6WcQAAAAAACAAAQAACAAAQAACAAAQAAAAAAAAA==

> <PUBCHEM_IUPAC_OPENEYE_NAME>
ethyl 8-acetamido-1-methyl-7-nitro-4-oxo-5H-imidazo[1,2-a]quinoxaline-2-carboxylate

> <PUBCHEM_IUPAC_CAS_NAME>
8-acetamido-1-methyl-7-nitro-4-oxo-5H-imidazo[1,2-a]quinoxaline-2-carboxylic acid ethyl ester

> <PUBCHEM_IUPAC_NAME_MARKUP>
ethyl 8-acetamido-1-methyl-7-nitro-4-oxo-5<I>H</I>-imidazo[1,2-a]quinoxaline-2-carboxylate

> <PUBCHEM_IUPAC_NAME>
ethyl 8-acetamido-1-methyl-7-nitro-4-oxo-5H-imidazo[1,2-a]quinoxaline-2-carboxylate

> <PUBCHEM_IUPAC_SYSTEMATIC_NAME>
ethyl 8-acetamido-1-methyl-7-nitro-4-oxidanylidene-5H-imidazo[1,2-a]quinoxaline-2-carboxylate

> <PUBCHEM_IUPAC_TRADITIONAL_NAME>
8-acetamido-4-keto-1-methyl-7-nitro-5H-imidazo[1,2-a]quinoxaline-2-carboxylic acid ethyl ester

> <PUBCHEM_IUPAC_INCHI>
InChI=1S/C16H15N5O6/c1-4-27-16(24)13-7(2)20-11-5-10(17-8(3)22)12(21(25)26)6-9(11)18-15(23)14(20)19-13/h5-6H,4H2,1-3H3,(H,17,22)(H,18,23)

> <PUBCHEM_IUPAC_INCHIKEY>
WUTNLCUQZGDRGX-UHFFFAOYSA-N

> <PUBCHEM_XLOGP3_AA>
1.4

> <PUBCHEM_EXACT_MASS>
373.10223322

> <PUBCHEM_MOLECULAR_FORMULA>
C16H15N5O6

> <PUBCHEM_MOLECULAR_WEIGHT>
373.32

> <PUBCHEM_SMILES>
CCOC(=O)C1=C(N2C3=CC(=C(C=C3NC(=O)C2=N1)[N+](=O)[O-])NC(=O)C)C

> <PUBCHEM_OPENEYE_CAN_SMILES>
CCOC(=O)C1=C(N2C3=CC(=C(C=C3NC(=O)C2=N1)[N+](=O)[O-])NC(=O)C)C

> <PUBCHEM_OPENEYE_ISO_SMILES>
CCOC(=O)C1=C(N2C3=CC(=C(C=C3NC(=O)C2=N1)[N+](=O)[O-])NC(=O)C)C

> <PUBCHEM_CACTVS_TPSA>
148

> <PUBCHEM_MONOISOTOPIC_WEIGHT>
373.10223322

> <PUBCHEM_TOTAL_CHARGE>
0

> <PUBCHEM_HEAVY_ATOM_COUNT>
27

> <PUBCHEM_ATOM_DEF_STEREO_COUNT>
0

> <PUBCHEM_ATOM_UDEF_STEREO_COUNT>
0

> <PUBCHEM_BOND_DEF_STEREO_COUNT>
0

> <PUBCHEM_BOND_UDEF_STEREO_COUNT>
0

> <PUBCHEM_ISOTOPIC_ATOM_COUNT>
0

> <PUBCHEM_COMPONENT_COUNT>
1

> <PUBCHEM_CACTVS_TAUTO_COUNT>
-1

> <PUBCHEM_COORDINATE_TYPE>
1
5
255

> <PUBCHEM_BONDANNOTATIONS>
12  13  8
12  16  8
13  19  8
14  17  8
15  18  8
16  20  8
19  21  8
20  21  8
7  12  8
7  14  8
7  15  8
8  13  8
8  18  8
9  15  8
9  17  8

$$$$
