49830755
  -OEChem-03202503172D

 31 33  0     0  0  0  0  0  0999 V2000
    4.6783   -0.7656    0.0000 N   0  0  0  0  0  0  0  0  0  0  0  0
    2.8660   -0.9609    0.0000 N   0  0  0  0  0  0  0  0  0  0  0  0
    2.0000    0.5391    0.0000 N   0  0  0  0  0  0  0  0  0  0  0  0
    2.8660    2.0391    0.0000 N   0  0  0  0  0  0  0  0  0  0  0  0
    4.9889   -1.7162    0.0000 C   0  0  0  0  0  0  0  0  0  0  0  0
    4.4026   -2.5262    0.0000 C   0  0  0  0  0  0  0  0  0  0  0  0
    5.9405   -2.0235    0.0000 C   0  0  0  0  0  0  0  0  0  0  0  0
    4.9917   -3.3342    0.0000 C   0  0  0  0  0  0  0  0  0  0  0  0
    5.9422   -3.0235    0.0000 C   0  0  0  0  0  0  0  0  0  0  0  0
    3.7320   -0.4609    0.0000 C   0  0  0  0  0  0  0  0  0  0  0  0
    5.2619    0.0391    0.0000 C   0  0  0  0  0  0  0  0  0  0  0  0
    3.7320    0.5391    0.0000 C   0  0  0  0  0  0  0  0  0  0  0  0
    4.6783    0.8438    0.0000 C   0  0  0  0  0  0  0  0  0  0  0  0
    2.8660    1.0391    0.0000 C   0  0  0  0  0  0  0  0  0  0  0  0
    2.0000   -0.4609    0.0000 C   0  0  0  0  0  0  0  0  0  0  0  0
    4.9889    1.7944    0.0000 C   0  0  0  0  0  0  0  0  0  0  0  0
    5.2996    2.7449    0.0000 C   0  0  0  0  0  0  0  0  0  0  0  0
    5.4266   -1.2770    0.0000 H   0  0  0  0  0  0  0  0  0  0  0  0
    3.9411   -2.1121    0.0000 H   0  0  0  0  0  0  0  0  0  0  0  0
    3.9425   -2.9418    0.0000 H   0  0  0  0  0  0  0  0  0  0  0  0
    6.5572   -2.0873    0.0000 H   0  0  0  0  0  0  0  0  0  0  0  0
    6.0684   -1.4169    0.0000 H   0  0  0  0  0  0  0  0  0  0  0  0
    4.4553   -3.6451    0.0000 H   0  0  0  0  0  0  0  0  0  0  0  0
    5.2449   -3.9002    0.0000 H   0  0  0  0  0  0  0  0  0  0  0  0
    6.0722   -3.6298    0.0000 H   0  0  0  0  0  0  0  0  0  0  0  0
    6.5587   -2.9576    0.0000 H   0  0  0  0  0  0  0  0  0  0  0  0
    5.8819    0.0391    0.0000 H   0  0  0  0  0  0  0  0  0  0  0  0
    1.4631   -0.7709    0.0000 H   0  0  0  0  0  0  0  0  0  0  0  0
    2.3291    2.3491    0.0000 H   0  0  0  0  0  0  0  0  0  0  0  0
    3.4030    2.3491    0.0000 H   0  0  0  0  0  0  0  0  0  0  0  0
    5.4922    3.3342    0.0000 H   0  0  0  0  0  0  0  0  0  0  0  0
  1  5  1  0  0  0  0
  1 10  1  0  0  0  0
  1 11  1  0  0  0  0
  2 10  2  0  0  0  0
  2 15  1  0  0  0  0
  3 14  1  0  0  0  0
  3 15  2  0  0  0  0
  4 14  1  0  0  0  0
  4 29  1  0  0  0  0
  4 30  1  0  0  0  0
  5  6  1  0  0  0  0
  5  7  1  0  0  0  0
  5 18  1  0  0  0  0
  6  8  1  0  0  0  0
  6 19  1  0  0  0  0
  6 20  1  0  0  0  0
  7  9  1  0  0  0  0
  7 21  1  0  0  0  0
  7 22  1  0  0  0  0
  8  9  1  0  0  0  0
  8 23  1  0  0  0  0
  8 24  1  0  0  0  0
  9 25  1  0  0  0  0
  9 26  1  0  0  0  0
 10 12  1  0  0  0  0
 11 13  2  0  0  0  0
 11 27  1  0  0  0  0
 12 13  1  0  0  0  0
 12 14  2  0  0  0  0
 13 16  1  0  0  0  0
 15 28  1  0  0  0  0
 16 17  3  0  0  0  0
 17 31  1  0  0  0  0
M  END
> <PUBCHEM_COMPOUND_CID>
49830755

> <PUBCHEM_COMPOUND_CANONICALIZED>
1

> <PUBCHEM_CACTVS_COMPLEXITY>
328

> <PUBCHEM_CACTVS_HBOND_ACCEPTOR>
3

> <PUBCHEM_CACTVS_HBOND_DONOR>
1

> <PUBCHEM_CACTVS_ROTATABLE_BOND>
2

> <PUBCHEM_CACTVS_SUBSKEYS>
AAADccBzgAAAAAAAAAAAAAAAAAAAAeIAAAAsAAAAAAAAAFgB+AAAHAAQAAAADCjBGwQtsN9MEADgGhJnZAiCgCkxAKAB2CAoRJiIKEJAyMEEBAhIAALAQCAQAAAIgAAAAAAAAAAAAAAAAAAAAAAAAAAAAA==

> <PUBCHEM_IUPAC_OPENEYE_NAME>
7-cyclopentyl-5-ethynyl-pyrrolo[2,3-d]pyrimidin-4-amine

> <PUBCHEM_IUPAC_CAS_NAME>
7-cyclopentyl-5-ethynyl-4-pyrrolo[2,3-d]pyrimidinamine

> <PUBCHEM_IUPAC_NAME_MARKUP>
7-cyclopentyl-5-ethynylpyrrolo[2,3-d]pyrimidin-4-amine

> <PUBCHEM_IUPAC_NAME>
7-cyclopentyl-5-ethynylpyrrolo[2,3-d]pyrimidin-4-amine

> <PUBCHEM_IUPAC_SYSTEMATIC_NAME>
7-cyclopentyl-5-ethynyl-pyrrolo[2,3-d]pyrimidin-4-amine

> <PUBCHEM_IUPAC_TRADITIONAL_NAME>
(7-cyclopentyl-5-ethynyl-pyrrolo[2,3-d]pyrimidin-4-yl)amine

> <PUBCHEM_IUPAC_INCHI>
InChI=1S/C13H14N4/c1-2-9-7-17(10-5-3-4-6-10)13-11(9)12(14)15-8-16-13/h1,7-8,10H,3-6H2,(H2,14,15,16)

> <PUBCHEM_IUPAC_INCHIKEY>
ATGVCJYHNOSZEV-UHFFFAOYSA-N

> <PUBCHEM_XLOGP3_AA>
1.7

> <PUBCHEM_EXACT_MASS>
226.121846464

> <PUBCHEM_MOLECULAR_FORMULA>
C13H14N4

> <PUBCHEM_MOLECULAR_WEIGHT>
226.28

> <PUBCHEM_SMILES>
C#CC1=CN(C2=NC=NC(=C12)N)C3CCCC3

> <PUBCHEM_OPENEYE_CAN_SMILES>
C#CC1=CN(C2=NC=NC(=C12)N)C3CCCC3

> <PUBCHEM_OPENEYE_ISO_SMILES>
C#CC1=CN(C2=NC=NC(=C12)N)C3CCCC3

> <PUBCHEM_CACTVS_TPSA>
56.7

> <PUBCHEM_MONOISOTOPIC_WEIGHT>
226.121846464

> <PUBCHEM_TOTAL_CHARGE>
0

> <PUBCHEM_HEAVY_ATOM_COUNT>
17

> <PUBCHEM_ATOM_DEF_STEREO_COUNT>
0

> <PUBCHEM_ATOM_UDEF_STEREO_COUNT>
0

> <PUBCHEM_BOND_DEF_STEREO_COUNT>
0

> <PUBCHEM_BOND_UDEF_STEREO_COUNT>
0

> <PUBCHEM_ISOTOPIC_ATOM_COUNT>
0

> <PUBCHEM_COMPONENT_COUNT>
1

> <PUBCHEM_CACTVS_TAUTO_COUNT>
-1

> <PUBCHEM_COORDINATE_TYPE>
1
5
255

> <PUBCHEM_BONDANNOTATIONS>
1  10  8
1  11  8
10  12  8
11  13  8
12  13  8
12  14  8
2  10  8
2  15  8
3  14  8
3  15  8

$$$$
