44410869
  -OEChem-03202504372D

 55 58  0     1  0  0  0  0  0999 V2000
   12.3436   -1.2599    0.0000 Cl  0  0  0  0  0  0  0  0  0  0  0  0
   10.6232   -0.2399    0.0000 F   0  0  0  0  0  0  0  0  0  0  0  0
    3.0438    2.4307    0.0000 O   0  0  0  0  0  0  0  0  0  0  0  0
    4.1550   -1.7393    0.0000 O   0  0  0  0  0  0  0  0  0  0  0  0
    5.3993    1.8148    0.0000 O   0  0  0  0  0  0  0  0  0  0  0  0
    4.5333    0.3147    0.0000 N   0  0  3  0  0  0  0  0  0  0  0  0
    2.4608   -1.3792    0.0000 N   0  0  0  0  0  0  0  0  0  0  0  0
    8.8913    1.8494    0.0000 N   0  0  0  0  0  0  0  0  0  0  0  0
    8.8797   -1.2199    0.0000 N   0  0  0  0  0  0  0  0  0  0  0  0
    9.7974    0.2939    0.0000 N   0  0  0  0  0  0  0  0  0  0  0  0
    3.6197   -0.0920    0.0000 C   0  0  2  0  0  0  0  0  0  0  0  0
    3.4506    1.5172    0.0000 C   0  0  2  0  0  0  0  0  0  0  0  0
    2.9506    0.6512    0.0000 C   0  0  0  0  0  0  0  0  0  0  0  0
    4.4287    1.3093    0.0000 C   0  0  0  0  0  0  0  0  0  0  0  0
    5.3993   -0.1853    0.0000 C   0  0  0  0  0  0  0  0  0  0  0  0
    3.4118   -1.0701    0.0000 C   0  0  0  0  0  0  0  0  0  0  0  0
    6.2653    0.3147    0.0000 C   0  0  0  0  0  0  0  0  0  0  0  0
    6.2653    1.3148    0.0000 C   0  0  0  0  0  0  0  0  0  0  0  0
    7.1313   -0.1853    0.0000 C   0  0  0  0  0  0  0  0  0  0  0  0
    3.6316    3.2397    0.0000 C   0  0  0  0  0  0  0  0  0  0  0  0
    7.9974    0.3147    0.0000 C   0  0  0  0  0  0  0  0  0  0  0  0
    7.1313    1.8148    0.0000 C   0  0  0  0  0  0  0  0  0  0  0  0
    7.9974    1.3148    0.0000 C   0  0  0  0  0  0  0  0  0  0  0  0
    8.8913   -0.2199    0.0000 C   0  0  0  0  0  0  0  0  0  0  0  0
    5.3993    2.8148    0.0000 C   0  0  0  0  0  0  0  0  0  0  0  0
    9.7974    1.3356    0.0000 C   0  0  0  0  0  0  0  0  0  0  0  0
    9.7399   -1.7298    0.0000 C   0  0  0  0  0  0  0  0  0  0  0  0
   10.6117   -1.2399    0.0000 C   0  0  0  0  0  0  0  0  0  0  0  0
    9.7284   -2.7298    0.0000 C   0  0  0  0  0  0  0  0  0  0  0  0
   11.4719   -1.7499    0.0000 C   0  0  0  0  0  0  0  0  0  0  0  0
   10.5886   -3.2397    0.0000 C   0  0  0  0  0  0  0  0  0  0  0  0
   11.4603   -2.7498    0.0000 C   0  0  0  0  0  0  0  0  0  0  0  0
    4.1015   -0.4822    0.0000 H   0  0  0  0  0  0  0  0  0  0  0  0
    3.8408    1.9990    0.0000 H   0  0  0  0  0  0  0  0  0  0  0  0
    2.4490    1.0156    0.0000 H   0  0  0  0  0  0  0  0  0  0  0  0
    2.5357    0.1904    0.0000 H   0  0  0  0  0  0  0  0  0  0  0  0
    5.0487    1.3093    0.0000 H   0  0  0  0  0  0  0  0  0  0  0  0
    4.4935    1.9259    0.0000 H   0  0  0  0  0  0  0  0  0  0  0  0
    5.0008   -0.6602    0.0000 H   0  0  0  0  0  0  0  0  0  0  0  0
    5.7978   -0.6602    0.0000 H   0  0  0  0  0  0  0  0  0  0  0  0
    7.1313   -0.8053    0.0000 H   0  0  0  0  0  0  0  0  0  0  0  0
    4.1332    2.8753    0.0000 H   0  0  0  0  0  0  0  0  0  0  0  0
    3.9961    3.7413    0.0000 H   0  0  0  0  0  0  0  0  0  0  0  0
    3.1301    3.6042    0.0000 H   0  0  0  0  0  0  0  0  0  0  0  0
    2.0000   -0.9643    0.0000 H   0  0  0  0  0  0  0  0  0  0  0  0
    2.3318   -1.9856    0.0000 H   0  0  0  0  0  0  0  0  0  0  0  0
    7.1313    2.4348    0.0000 H   0  0  0  0  0  0  0  0  0  0  0  0
    8.3393   -1.5236    0.0000 H   0  0  0  0  0  0  0  0  0  0  0  0
    6.0193    2.8148    0.0000 H   0  0  0  0  0  0  0  0  0  0  0  0
    5.3993    3.4348    0.0000 H   0  0  0  0  0  0  0  0  0  0  0  0
    4.7793    2.8148    0.0000 H   0  0  0  0  0  0  0  0  0  0  0  0
   10.3331    1.6476    0.0000 H   0  0  0  0  0  0  0  0  0  0  0  0
    9.1879   -3.0335    0.0000 H   0  0  0  0  0  0  0  0  0  0  0  0
   10.5814   -3.8597    0.0000 H   0  0  0  0  0  0  0  0  0  0  0  0
   11.9936   -3.0660    0.0000 H   0  0  0  0  0  0  0  0  0  0  0  0
  1 30  1  0  0  0  0
  2 28  1  0  0  0  0
 12  3  1  1  0  0  0
  3 20  1  0  0  0  0
  4 16  2  0  0  0  0
  5 18  1  0  0  0  0
  5 25  1  0  0  0  0
  6 11  1  0  0  0  0
  6 14  1  0  0  0  0
  6 15  1  0  0  0  0
  7 16  1  0  0  0  0
  7 45  1  0  0  0  0
  7 46  1  0  0  0  0
  8 23  1  0  0  0  0
  8 26  2  0  0  0  0
  9 24  1  0  0  0  0
  9 27  1  0  0  0  0
  9 48  1  0  0  0  0
 10 24  2  0  0  0  0
 10 26  1  0  0  0  0
 11 13  1  0  0  0  0
 11 16  1  1  0  0  0
 11 33  1  0  0  0  0
 12 13  1  0  0  0  0
 12 14  1  0  0  0  0
 12 34  1  0  0  0  0
 13 35  1  0  0  0  0
 13 36  1  0  0  0  0
 14 37  1  0  0  0  0
 14 38  1  0  0  0  0
 15 17  1  0  0  0  0
 15 39  1  0  0  0  0
 15 40  1  0  0  0  0
 17 18  1  0  0  0  0
 17 19  2  0  0  0  0
 18 22  2  0  0  0  0
 19 21  1  0  0  0  0
 19 41  1  0  0  0  0
 20 42  1  0  0  0  0
 20 43  1  0  0  0  0
 20 44  1  0  0  0  0
 21 23  2  0  0  0  0
 21 24  1  0  0  0  0
 22 23  1  0  0  0  0
 22 47  1  0  0  0  0
 25 49  1  0  0  0  0
 25 50  1  0  0  0  0
 25 51  1  0  0  0  0
 26 52  1  0  0  0  0
 27 28  2  0  0  0  0
 27 29  1  0  0  0  0
 28 30  1  0  0  0  0
 29 31  2  0  0  0  0
 29 53  1  0  0  0  0
 30 32  2  0  0  0  0
 31 32  1  0  0  0  0
 31 54  1  0  0  0  0
 32 55  1  0  0  0  0
M  END
> <PUBCHEM_COMPOUND_CID>
44410869

> <PUBCHEM_COMPOUND_CANONICALIZED>
1

> <PUBCHEM_CACTVS_COMPLEXITY>
649

> <PUBCHEM_CACTVS_HBOND_ACCEPTOR>
8

> <PUBCHEM_CACTVS_HBOND_DONOR>
2

> <PUBCHEM_CACTVS_ROTATABLE_BOND>
7

> <PUBCHEM_CACTVS_SUBSKEYS>
AAADceB7sQAEAAAAAAAAAAAAAAAAAWAAAAA8YIAAAAAAAACx9AAAHwIQAAAADD7hni439vfIFACoAydzdACCiCkxJ6AJ2CG+bpiObvLF+/uVNChu0BvY6Ce60WMOKAACAgIKAABQAAQEBBQAAAAAAAAAAA==

> <PUBCHEM_IUPAC_OPENEYE_NAME>
(2R,4R)-1-[[4-(3-chloro-2-fluoro-anilino)-7-methoxy-quinazolin-6-yl]methyl]-4-methoxy-pyrrolidine-2-carboxamide

> <PUBCHEM_IUPAC_CAS_NAME>
(2R,4R)-1-[[4-(3-chloro-2-fluoroanilino)-7-methoxy-6-quinazolinyl]methyl]-4-methoxy-2-pyrrolidinecarboxamide

> <PUBCHEM_IUPAC_NAME_MARKUP>
(2<I>R</I>,4<I>R</I>)-1-[[4-(3-chloro-2-fluoroanilino)-7-methoxyquinazolin-6-yl]methyl]-4-methoxypyrrolidine-2-carboxamide

> <PUBCHEM_IUPAC_NAME>
(2R,4R)-1-[[4-(3-chloro-2-fluoroanilino)-7-methoxyquinazolin-6-yl]methyl]-4-methoxypyrrolidine-2-carboxamide

> <PUBCHEM_IUPAC_SYSTEMATIC_NAME>
(2R,4R)-1-[[4-[(3-chloranyl-2-fluoranyl-phenyl)amino]-7-methoxy-quinazolin-6-yl]methyl]-4-methoxy-pyrrolidine-2-carboxamide

> <PUBCHEM_IUPAC_TRADITIONAL_NAME>
(2R,4R)-1-[[4-(3-chloro-2-fluoro-anilino)-7-methoxy-quinazolin-6-yl]methyl]-4-methoxy-pyrrolidine-2-carboxamide

> <PUBCHEM_IUPAC_INCHI>
InChI=1S/C22H23ClFN5O3/c1-31-13-7-18(21(25)30)29(10-13)9-12-6-14-17(8-19(12)32-2)26-11-27-22(14)28-16-5-3-4-15(23)20(16)24/h3-6,8,11,13,18H,7,9-10H2,1-2H3,(H2,25,30)(H,26,27,28)/t13-,18-/m1/s1

> <PUBCHEM_IUPAC_INCHIKEY>
YFQAPABPZZSLEM-FZKQIMNGSA-N

> <PUBCHEM_XLOGP3_AA>
3

> <PUBCHEM_EXACT_MASS>
459.1473455

> <PUBCHEM_MOLECULAR_FORMULA>
C22H23ClFN5O3

> <PUBCHEM_MOLECULAR_WEIGHT>
459.9

> <PUBCHEM_SMILES>
CO[C@@H]1C[C@@H](N(C1)CC2=CC3=C(C=C2OC)N=CN=C3NC4=C(C(=CC=C4)Cl)F)C(=O)N

> <PUBCHEM_OPENEYE_CAN_SMILES>
COC1CC(N(C1)CC2=CC3=C(C=C2OC)N=CN=C3NC4=C(C(=CC=C4)Cl)F)C(=O)N

> <PUBCHEM_OPENEYE_ISO_SMILES>
CO[C@@H]1C[C@@H](N(C1)CC2=CC3=C(C=C2OC)N=CN=C3NC4=C(C(=CC=C4)Cl)F)C(=O)N

> <PUBCHEM_CACTVS_TPSA>
103

> <PUBCHEM_MONOISOTOPIC_WEIGHT>
459.1473455

> <PUBCHEM_TOTAL_CHARGE>
0

> <PUBCHEM_HEAVY_ATOM_COUNT>
32

> <PUBCHEM_ATOM_DEF_STEREO_COUNT>
2

> <PUBCHEM_ATOM_UDEF_STEREO_COUNT>
0

> <PUBCHEM_BOND_DEF_STEREO_COUNT>
0

> <PUBCHEM_BOND_UDEF_STEREO_COUNT>
0

> <PUBCHEM_ISOTOPIC_ATOM_COUNT>
0

> <PUBCHEM_COMPONENT_COUNT>
1

> <PUBCHEM_CACTVS_TAUTO_COUNT>
-1

> <PUBCHEM_COORDINATE_TYPE>
1
5
255

> <PUBCHEM_BONDANNOTATIONS>
10  24  8
10  26  8
11  16  5
17  18  8
17  19  8
18  22  8
19  21  8
21  23  8
21  24  8
22  23  8
27  28  8
27  29  8
28  30  8
29  31  8
12  3  5
30  32  8
31  32  8
8  23  8
8  26  8

$$$$
