135444905
  -OEChem-03202507022D

 17 18  0     0  0  0  0  0  0999 V2000
    2.0000   -0.5415    0.0000 Br  0  0  0  0  0  0  0  0  0  0  0  0
    5.5301   -1.5173    0.0000 O   0  0  0  0  0  0  0  0  0  0  0  0
    6.3961   -0.0173    0.0000 N   0  0  0  0  0  0  0  0  0  0  0  0
    5.5301    1.4827    0.0000 N   0  0  0  0  0  0  0  0  0  0  0  0
    4.6641   -0.0173    0.0000 C   0  0  0  0  0  0  0  0  0  0  0  0
    4.6641    0.9827    0.0000 C   0  0  0  0  0  0  0  0  0  0  0  0
    3.7702   -0.5520    0.0000 C   0  0  0  0  0  0  0  0  0  0  0  0
    5.5301   -0.5173    0.0000 C   0  0  0  0  0  0  0  0  0  0  0  0
    3.7702    1.5173    0.0000 C   0  0  0  0  0  0  0  0  0  0  0  0
    2.8641   -0.0381    0.0000 C   0  0  0  0  0  0  0  0  0  0  0  0
    2.8641    1.0035    0.0000 C   0  0  0  0  0  0  0  0  0  0  0  0
    6.3961    0.9827    0.0000 C   0  0  0  0  0  0  0  0  0  0  0  0
    3.7773   -1.1720    0.0000 H   0  0  0  0  0  0  0  0  0  0  0  0
    3.7773    2.1373    0.0000 H   0  0  0  0  0  0  0  0  0  0  0  0
    2.3284    1.3156    0.0000 H   0  0  0  0  0  0  0  0  0  0  0  0
    6.9331   -0.3273    0.0000 H   0  0  0  0  0  0  0  0  0  0  0  0
    6.9331    1.2927    0.0000 H   0  0  0  0  0  0  0  0  0  0  0  0
  1 10  1  0  0  0  0
  2  8  2  0  0  0  0
  3  8  1  0  0  0  0
  3 12  1  0  0  0  0
  3 16  1  0  0  0  0
  4  6  1  0  0  0  0
  4 12  2  0  0  0  0
  5  6  2  0  0  0  0
  5  7  1  0  0  0  0
  5  8  1  0  0  0  0
  6  9  1  0  0  0  0
  7 10  2  0  0  0  0
  7 13  1  0  0  0  0
  9 11  2  0  0  0  0
  9 14  1  0  0  0  0
 10 11  1  0  0  0  0
 11 15  1  0  0  0  0
 12 17  1  0  0  0  0
M  END
> <PUBCHEM_COMPOUND_CID>
135444905

> <PUBCHEM_COMPOUND_CANONICALIZED>
1

> <PUBCHEM_CACTVS_COMPLEXITY>
229

> <PUBCHEM_CACTVS_HBOND_ACCEPTOR>
2

> <PUBCHEM_CACTVS_HBOND_DONOR>
1

> <PUBCHEM_CACTVS_ROTATABLE_BOND>
0

> <PUBCHEM_CACTVS_SUBSKEYS>
AAADcYBzIAAAEAAAAAAAAAAAAAAAAAAAAAAwQAAAAAAAAACBAAAAHgBQAAABrAiBmAQxwILAAACoAiVTdACCAAEkAgQJiIEIZOgIIDqA3ZGEIYhgggAIy9cYiACOAAAgEAACAAAAAEAgAAQAAAAAAAAAAA==

> <PUBCHEM_IUPAC_OPENEYE_NAME>
6-bromo-3H-quinazolin-4-one

> <PUBCHEM_IUPAC_CAS_NAME>
6-bromo-3H-quinazolin-4-one

> <PUBCHEM_IUPAC_NAME_MARKUP>
6-bromo-3<I>H</I>-quinazolin-4-one

> <PUBCHEM_IUPAC_NAME>
6-bromo-3H-quinazolin-4-one

> <PUBCHEM_IUPAC_SYSTEMATIC_NAME>
6-bromanyl-3H-quinazolin-4-one

> <PUBCHEM_IUPAC_TRADITIONAL_NAME>
6-bromo-3H-quinazolin-4-one

> <PUBCHEM_IUPAC_INCHI>
InChI=1S/C8H5BrN2O/c9-5-1-2-7-6(3-5)8(12)11-4-10-7/h1-4H,(H,10,11,12)

> <PUBCHEM_IUPAC_INCHIKEY>
OVEISJPVPHWEHR-UHFFFAOYSA-N

> <PUBCHEM_XLOGP3_AA>
1.4

> <PUBCHEM_EXACT_MASS>
223.95853

> <PUBCHEM_MOLECULAR_FORMULA>
C8H5BrN2O

> <PUBCHEM_MOLECULAR_WEIGHT>
225.04

> <PUBCHEM_SMILES>
C1=CC2=C(C=C1Br)C(=O)NC=N2

> <PUBCHEM_OPENEYE_CAN_SMILES>
C1=CC2=C(C=C1Br)C(=O)NC=N2

> <PUBCHEM_OPENEYE_ISO_SMILES>
C1=CC2=C(C=C1Br)C(=O)NC=N2

> <PUBCHEM_CACTVS_TPSA>
41.5

> <PUBCHEM_MONOISOTOPIC_WEIGHT>
223.95853

> <PUBCHEM_TOTAL_CHARGE>
0

> <PUBCHEM_HEAVY_ATOM_COUNT>
12

> <PUBCHEM_ATOM_DEF_STEREO_COUNT>
0

> <PUBCHEM_ATOM_UDEF_STEREO_COUNT>
0

> <PUBCHEM_BOND_DEF_STEREO_COUNT>
0

> <PUBCHEM_BOND_UDEF_STEREO_COUNT>
0

> <PUBCHEM_ISOTOPIC_ATOM_COUNT>
0

> <PUBCHEM_COMPONENT_COUNT>
1

> <PUBCHEM_CACTVS_TAUTO_COUNT>
-1

> <PUBCHEM_COORDINATE_TYPE>
1
5
255

> <PUBCHEM_BONDANNOTATIONS>
10  11  8
3  12  8
3  8  8
4  12  8
4  6  8
5  6  8
5  7  8
5  8  8
6  9  8
7  10  8
9  11  8

$$$$
