44186884
  -OEChem-03202500552D

 36 40  0     0  0  0  0  0  0999 V2000
    4.9496    0.9517    0.0000 N   0  0  0  0  0  0  0  0  0  0  0  0
    8.1146   -0.0892    0.0000 N   0  0  0  0  0  0  0  0  0  0  0  0
    7.0320    1.1132    0.0000 N   0  0  0  0  0  0  0  0  0  0  0  0
    5.2577    1.8969    0.0000 N   0  0  0  0  0  0  0  0  0  0  0  0
    8.0101    0.9053    0.0000 N   0  0  0  0  0  0  0  0  0  0  0  0
   11.6589   -1.8939    0.0000 N   0  0  0  0  0  0  0  0  0  0  0  0
    4.4550    2.4832    0.0000 N   0  0  0  0  0  0  0  0  0  0  0  0
   12.2425   -1.0892    0.0000 N   0  0  0  0  0  0  0  0  0  0  0  0
    5.5374    0.1427    0.0000 C   0  0  0  0  0  0  0  0  0  0  0  0
    6.5320    0.2472    0.0000 C   0  0  0  0  0  0  0  0  0  0  0  0
    8.9807   -0.5892    0.0000 C   0  0  0  0  0  0  0  0  0  0  0  0
    3.9556    0.9508    0.0000 C   0  0  0  0  0  0  0  0  0  0  0  0
   10.7127   -0.5892    0.0000 C   0  0  0  0  0  0  0  0  0  0  0  0
    7.2011   -0.4959    0.0000 C   0  0  0  0  0  0  0  0  0  0  0  0
   10.7127   -1.5892    0.0000 C   0  0  0  0  0  0  0  0  0  0  0  0
    9.8467   -0.0892    0.0000 C   0  0  0  0  0  0  0  0  0  0  0  0
    3.6482    1.9024    0.0000 C   0  0  0  0  0  0  0  0  0  0  0  0
    8.9807   -1.5892    0.0000 C   0  0  0  0  0  0  0  0  0  0  0  0
    9.8467   -2.0892    0.0000 C   0  0  0  0  0  0  0  0  0  0  0  0
    3.2852    0.2089    0.0000 C   0  0  0  0  0  0  0  0  0  0  0  0
    2.6704    2.1120    0.0000 C   0  0  0  0  0  0  0  0  0  0  0  0
   11.6589   -0.2845    0.0000 C   0  0  0  0  0  0  0  0  0  0  0  0
    2.3074    0.4185    0.0000 C   0  0  0  0  0  0  0  0  0  0  0  0
    2.0000    1.3700    0.0000 C   0  0  0  0  0  0  0  0  0  0  0  0
    4.9802   -0.1291    0.0000 H   0  0  0  0  0  0  0  0  0  0  0  0
    5.7083   -0.4533    0.0000 H   0  0  0  0  0  0  0  0  0  0  0  0
    7.0722   -1.1024    0.0000 H   0  0  0  0  0  0  0  0  0  0  0  0
    9.8467    0.5308    0.0000 H   0  0  0  0  0  0  0  0  0  0  0  0
    8.4437   -1.8992    0.0000 H   0  0  0  0  0  0  0  0  0  0  0  0
    9.8467   -2.7092    0.0000 H   0  0  0  0  0  0  0  0  0  0  0  0
    3.4757   -0.3811    0.0000 H   0  0  0  0  0  0  0  0  0  0  0  0
    2.4798    2.7020    0.0000 H   0  0  0  0  0  0  0  0  0  0  0  0
   11.8515    0.3049    0.0000 H   0  0  0  0  0  0  0  0  0  0  0  0
   11.8515   -2.4832    0.0000 H   0  0  0  0  0  0  0  0  0  0  0  0
    1.8917   -0.0416    0.0000 H   0  0  0  0  0  0  0  0  0  0  0  0
    1.3938    1.5000    0.0000 H   0  0  0  0  0  0  0  0  0  0  0  0
  1  4  1  0  0  0  0
  1  9  1  0  0  0  0
  1 12  1  0  0  0  0
  2  5  1  0  0  0  0
  2 11  1  0  0  0  0
  2 14  1  0  0  0  0
  3  5  2  0  0  0  0
  3 10  1  0  0  0  0
  4  7  2  0  0  0  0
  6  8  1  0  0  0  0
  6 15  1  0  0  0  0
  6 34  1  0  0  0  0
  7 17  1  0  0  0  0
  8 22  2  0  0  0  0
  9 10  1  0  0  0  0
  9 25  1  0  0  0  0
  9 26  1  0  0  0  0
 10 14  2  0  0  0  0
 11 16  2  0  0  0  0
 11 18  1  0  0  0  0
 12 17  1  0  0  0  0
 12 20  2  0  0  0  0
 13 15  2  0  0  0  0
 13 16  1  0  0  0  0
 13 22  1  0  0  0  0
 14 27  1  0  0  0  0
 15 19  1  0  0  0  0
 16 28  1  0  0  0  0
 17 21  2  0  0  0  0
 18 19  2  0  0  0  0
 18 29  1  0  0  0  0
 19 30  1  0  0  0  0
 20 23  1  0  0  0  0
 20 31  1  0  0  0  0
 21 24  1  0  0  0  0
 21 32  1  0  0  0  0
 22 33  1  0  0  0  0
 23 24  2  0  0  0  0
 23 35  1  0  0  0  0
 24 36  1  0  0  0  0
M  END
> <PUBCHEM_COMPOUND_CID>
44186884

> <PUBCHEM_COMPOUND_CANONICALIZED>
1

> <PUBCHEM_CACTVS_COMPLEXITY>
448

> <PUBCHEM_CACTVS_HBOND_ACCEPTOR>
5

> <PUBCHEM_CACTVS_HBOND_DONOR>
1

> <PUBCHEM_CACTVS_ROTATABLE_BOND>
3

> <PUBCHEM_CACTVS_SUBSKEYS>
AAADccB7wAAAAAAAAAAAAAAAAAAAAWLFgAAwYAAAAAAAAFgB/gAAHAAYAAAADAjBHgQ8wPJrAACiAzRnRACSBCQxkgAY+SA4dJgIYOLA0dGUpAhgmADIyAcQgAAOAACAQAACACAAAQCAAAQAQAAAAAAAAA==

> <PUBCHEM_IUPAC_OPENEYE_NAME>
1-[[1-(1H-indazol-5-yl)triazol-4-yl]methyl]benzotriazole

> <PUBCHEM_IUPAC_CAS_NAME>
1-[[1-(1H-indazol-5-yl)-4-triazolyl]methyl]benzotriazole

> <PUBCHEM_IUPAC_NAME_MARKUP>
1-[[1-(1<I>H</I>-indazol-5-yl)triazol-4-yl]methyl]benzotriazole

> <PUBCHEM_IUPAC_NAME>
1-[[1-(1H-indazol-5-yl)triazol-4-yl]methyl]benzotriazole

> <PUBCHEM_IUPAC_SYSTEMATIC_NAME>
1-[[1-(1H-indazol-5-yl)-1,2,3-triazol-4-yl]methyl]benzotriazole

> <PUBCHEM_IUPAC_TRADITIONAL_NAME>
1-[[1-(1H-indazol-5-yl)triazol-4-yl]methyl]benzotriazole

> <PUBCHEM_IUPAC_INCHI>
InChI=1S/C16H12N8/c1-2-4-16-15(3-1)20-22-24(16)10-12-9-23(21-18-12)13-5-6-14-11(7-13)8-17-19-14/h1-9H,10H2,(H,17,19)

> <PUBCHEM_IUPAC_INCHIKEY>
SODGZPDNROVASD-UHFFFAOYSA-N

> <PUBCHEM_XLOGP3_AA>
1.8

> <PUBCHEM_EXACT_MASS>
316.11849242

> <PUBCHEM_MOLECULAR_FORMULA>
C16H12N8

> <PUBCHEM_MOLECULAR_WEIGHT>
316.32

> <PUBCHEM_SMILES>
C1=CC=C2C(=C1)N=NN2CC3=CN(N=N3)C4=CC5=C(C=C4)NN=C5

> <PUBCHEM_OPENEYE_CAN_SMILES>
C1=CC=C2C(=C1)N=NN2CC3=CN(N=N3)C4=CC5=C(C=C4)NN=C5

> <PUBCHEM_OPENEYE_ISO_SMILES>
C1=CC=C2C(=C1)N=NN2CC3=CN(N=N3)C4=CC5=C(C=C4)NN=C5

> <PUBCHEM_CACTVS_TPSA>
90.1

> <PUBCHEM_MONOISOTOPIC_WEIGHT>
316.11849242

> <PUBCHEM_TOTAL_CHARGE>
0

> <PUBCHEM_HEAVY_ATOM_COUNT>
24

> <PUBCHEM_ATOM_DEF_STEREO_COUNT>
0

> <PUBCHEM_ATOM_UDEF_STEREO_COUNT>
0

> <PUBCHEM_BOND_DEF_STEREO_COUNT>
0

> <PUBCHEM_BOND_UDEF_STEREO_COUNT>
0

> <PUBCHEM_ISOTOPIC_ATOM_COUNT>
0

> <PUBCHEM_COMPONENT_COUNT>
1

> <PUBCHEM_CACTVS_TAUTO_COUNT>
-1

> <PUBCHEM_COORDINATE_TYPE>
1
5
255

> <PUBCHEM_BONDANNOTATIONS>
1  12  8
1  4  8
10  14  8
11  16  8
11  18  8
12  17  8
12  20  8
13  15  8
13  16  8
13  22  8
15  19  8
17  21  8
18  19  8
2  14  8
2  5  8
20  23  8
21  24  8
23  24  8
3  10  8
3  5  8
4  7  8
6  15  8
6  8  8
7  17  8
8  22  8

$$$$
