49830347
  -OEChem-03202502252D

 63 67  0     0  0  0  0  0  0999 V2000
   10.2778    3.2364    0.0000 F   0  0  0  0  0  0  0  0  0  0  0  0
    2.0000   -6.5385    0.0000 O   0  0  0  0  0  0  0  0  0  0  0  0
    6.4103   -1.8432    0.0000 O   0  0  0  0  0  0  0  0  0  0  0  0
    9.2993    3.0302    0.0000 O   0  0  0  0  0  0  0  0  0  0  0  0
    3.7320   -5.5385    0.0000 N   0  0  0  0  0  0  0  0  0  0  0  0
    3.7320   -0.5385    0.0000 N   0  0  0  0  0  0  0  0  0  0  0  0
    4.5981    0.9615    0.0000 N   0  0  0  0  0  0  0  0  0  0  0  0
    7.6530    3.5683    0.0000 N   0  0  0  0  0  0  0  0  0  0  0  0
    8.9421    4.7250    0.0000 N   0  0  0  0  0  0  0  0  0  0  0  0
    3.7320   -6.5385    0.0000 C   0  0  0  0  0  0  0  0  0  0  0  0
    2.8660   -5.0385    0.0000 C   0  0  0  0  0  0  0  0  0  0  0  0
    2.8660   -7.0385    0.0000 C   0  0  0  0  0  0  0  0  0  0  0  0
    2.0000   -5.5385    0.0000 C   0  0  0  0  0  0  0  0  0  0  0  0
    4.5981   -5.0385    0.0000 C   0  0  0  0  0  0  0  0  0  0  0  0
    5.4641   -0.5385    0.0000 C   0  0  0  0  0  0  0  0  0  0  0  0
    6.4103   -0.2338    0.0000 C   0  0  0  0  0  0  0  0  0  0  0  0
    5.4641   -1.5385    0.0000 C   0  0  0  0  0  0  0  0  0  0  0  0
    4.5981   -4.0385    0.0000 C   0  0  0  0  0  0  0  0  0  0  0  0
    6.7210    0.7167    0.0000 C   0  0  0  0  0  0  0  0  0  0  0  0
    4.5981   -2.0385    0.0000 C   0  0  0  0  0  0  0  0  0  0  0  0
    4.5981   -0.0385    0.0000 C   0  0  0  0  0  0  0  0  0  0  0  0
    6.9939   -1.0385    0.0000 C   0  0  0  0  0  0  0  0  0  0  0  0
    4.5981   -3.0385    0.0000 C   0  0  0  0  0  0  0  0  0  0  0  0
    6.0531    1.4610    0.0000 C   0  0  0  0  0  0  0  0  0  0  0  0
    7.6995    0.9230    0.0000 C   0  0  0  0  0  0  0  0  0  0  0  0
    3.7320   -1.5385    0.0000 C   0  0  0  0  0  0  0  0  0  0  0  0
    7.3423    2.6178    0.0000 C   0  0  0  0  0  0  0  0  0  0  0  0
    6.3638    2.4116    0.0000 C   0  0  0  0  0  0  0  0  0  0  0  0
    8.0102    1.8735    0.0000 C   0  0  0  0  0  0  0  0  0  0  0  0
    8.6315    3.7745    0.0000 C   0  0  0  0  0  0  0  0  0  0  0  0
    9.9206    4.9313    0.0000 C   0  0  0  0  0  0  0  0  0  0  0  0
   11.2098    6.0880    0.0000 C   0  0  0  0  0  0  0  0  0  0  0  0
   10.2313    5.8818    0.0000 C   0  0  0  0  0  0  0  0  0  0  0  0
   10.5885    4.1870    0.0000 C   0  0  0  0  0  0  0  0  0  0  0  0
   11.8777    5.3437    0.0000 C   0  0  0  0  0  0  0  0  0  0  0  0
   11.5670    4.3932    0.0000 C   0  0  0  0  0  0  0  0  0  0  0  0
   11.5205    7.0385    0.0000 C   0  0  0  0  0  0  0  0  0  0  0  0
    3.9441   -7.1211    0.0000 H   0  0  0  0  0  0  0  0  0  0  0  0
    4.3426   -6.4309    0.0000 H   0  0  0  0  0  0  0  0  0  0  0  0
    3.2646   -4.5636    0.0000 H   0  0  0  0  0  0  0  0  0  0  0  0
    2.4675   -4.5636    0.0000 H   0  0  0  0  0  0  0  0  0  0  0  0
    2.4675   -7.5135    0.0000 H   0  0  0  0  0  0  0  0  0  0  0  0
    3.2646   -7.5135    0.0000 H   0  0  0  0  0  0  0  0  0  0  0  0
    1.7880   -4.9559    0.0000 H   0  0  0  0  0  0  0  0  0  0  0  0
    1.3894   -5.6462    0.0000 H   0  0  0  0  0  0  0  0  0  0  0  0
    4.8101   -5.6211    0.0000 H   0  0  0  0  0  0  0  0  0  0  0  0
    5.2087   -4.9309    0.0000 H   0  0  0  0  0  0  0  0  0  0  0  0
    7.6139   -1.0385    0.0000 H   0  0  0  0  0  0  0  0  0  0  0  0
    5.4465    1.3332    0.0000 H   0  0  0  0  0  0  0  0  0  0  0  0
    8.1136    0.4615    0.0000 H   0  0  0  0  0  0  0  0  0  0  0  0
    3.1951   -1.8485    0.0000 H   0  0  0  0  0  0  0  0  0  0  0  0
    5.9497    2.8730    0.0000 H   0  0  0  0  0  0  0  0  0  0  0  0
    8.6168    2.0013    0.0000 H   0  0  0  0  0  0  0  0  0  0  0  0
    4.0611    1.2715    0.0000 H   0  0  0  0  0  0  0  0  0  0  0  0
    5.1350    1.2715    0.0000 H   0  0  0  0  0  0  0  0  0  0  0  0
    7.2389    4.0298    0.0000 H   0  0  0  0  0  0  0  0  0  0  0  0
    8.5281    5.1865    0.0000 H   0  0  0  0  0  0  0  0  0  0  0  0
    9.8172    6.3432    0.0000 H   0  0  0  0  0  0  0  0  0  0  0  0
   12.4843    5.4716    0.0000 H   0  0  0  0  0  0  0  0  0  0  0  0
   11.9811    3.9317    0.0000 H   0  0  0  0  0  0  0  0  0  0  0  0
   12.1098    6.8459    0.0000 H   0  0  0  0  0  0  0  0  0  0  0  0
   11.7131    7.6278    0.0000 H   0  0  0  0  0  0  0  0  0  0  0  0
   10.9312    7.2311    0.0000 H   0  0  0  0  0  0  0  0  0  0  0  0
  1 34  1  0  0  0  0
  2 12  1  0  0  0  0
  2 13  1  0  0  0  0
  3 17  1  0  0  0  0
  3 22  1  0  0  0  0
  4 30  2  0  0  0  0
  5 10  1  0  0  0  0
  5 11  1  0  0  0  0
  5 14  1  0  0  0  0
  6 21  2  0  0  0  0
  6 26  1  0  0  0  0
  7 21  1  0  0  0  0
  7 54  1  0  0  0  0
  7 55  1  0  0  0  0
  8 27  1  0  0  0  0
  8 30  1  0  0  0  0
  8 56  1  0  0  0  0
  9 30  1  0  0  0  0
  9 31  1  0  0  0  0
  9 57  1  0  0  0  0
 10 12  1  0  0  0  0
 10 38  1  0  0  0  0
 10 39  1  0  0  0  0
 11 13  1  0  0  0  0
 11 40  1  0  0  0  0
 11 41  1  0  0  0  0
 12 42  1  0  0  0  0
 12 43  1  0  0  0  0
 13 44  1  0  0  0  0
 13 45  1  0  0  0  0
 14 18  1  0  0  0  0
 14 46  1  0  0  0  0
 14 47  1  0  0  0  0
 15 16  1  0  0  0  0
 15 17  2  0  0  0  0
 15 21  1  0  0  0  0
 16 19  1  0  0  0  0
 16 22  2  0  0  0  0
 17 20  1  0  0  0  0
 18 23  3  0  0  0  0
 19 24  2  0  0  0  0
 19 25  1  0  0  0  0
 20 23  1  0  0  0  0
 20 26  2  0  0  0  0
 22 48  1  0  0  0  0
 24 28  1  0  0  0  0
 24 49  1  0  0  0  0
 25 29  2  0  0  0  0
 25 50  1  0  0  0  0
 26 51  1  0  0  0  0
 27 28  2  0  0  0  0
 27 29  1  0  0  0  0
 28 52  1  0  0  0  0
 29 53  1  0  0  0  0
 31 33  1  0  0  0  0
 31 34  2  0  0  0  0
 32 33  2  0  0  0  0
 32 35  1  0  0  0  0
 32 37  1  0  0  0  0
 33 58  1  0  0  0  0
 34 36  1  0  0  0  0
 35 36  2  0  0  0  0
 35 59  1  0  0  0  0
 36 60  1  0  0  0  0
 37 61  1  0  0  0  0
 37 62  1  0  0  0  0
 37 63  1  0  0  0  0
M  END
> <PUBCHEM_COMPOUND_CID>
49830347

> <PUBCHEM_COMPOUND_CANONICALIZED>
1

> <PUBCHEM_CACTVS_COMPLEXITY>
834

> <PUBCHEM_CACTVS_HBOND_ACCEPTOR>
7

> <PUBCHEM_CACTVS_HBOND_DONOR>
3

> <PUBCHEM_CACTVS_ROTATABLE_BOND>
5

> <PUBCHEM_CACTVS_SUBSKEYS>
AAADceB7sQAAAAAAAAAAAAAAAAAAASAAAAA8eIEAAAAAAFgB/AAAHwAQAAAADAzhmg4/9tPIFEDoEr539AiCiCk1IiAI2CEsbNiOJnrEtZuHOaju1BvY6ee8yPCOiAAAQAAAAAAQAACAAAAAAAAAAAAAAA==

> <PUBCHEM_IUPAC_OPENEYE_NAME>
1-[4-[4-amino-7-(3-morpholinoprop-1-ynyl)furo[3,2-c]pyridin-3-yl]phenyl]-3-(2-fluoro-5-methyl-phenyl)urea

> <PUBCHEM_IUPAC_CAS_NAME>
1-[4-[4-amino-7-[3-(4-morpholinyl)prop-1-ynyl]-3-furo[3,2-c]pyridinyl]phenyl]-3-(2-fluoro-5-methylphenyl)urea

> <PUBCHEM_IUPAC_NAME_MARKUP>
1-[4-[4-amino-7-(3-morpholin-4-ylprop-1-ynyl)furo[3,2-c]pyridin-3-yl]phenyl]-3-(2-fluoro-5-methylphenyl)urea

> <PUBCHEM_IUPAC_NAME>
1-[4-[4-amino-7-(3-morpholin-4-ylprop-1-ynyl)furo[3,2-c]pyridin-3-yl]phenyl]-3-(2-fluoro-5-methylphenyl)urea

> <PUBCHEM_IUPAC_SYSTEMATIC_NAME>
1-[4-[4-azanyl-7-(3-morpholin-4-ylprop-1-ynyl)furo[3,2-c]pyridin-3-yl]phenyl]-3-(2-fluoranyl-5-methyl-phenyl)urea

> <PUBCHEM_IUPAC_TRADITIONAL_NAME>
1-[4-[4-amino-7-(3-morpholinoprop-1-ynyl)furo[3,2-c]pyridin-3-yl]phenyl]-3-(2-fluoro-5-methyl-phenyl)urea

> <PUBCHEM_IUPAC_INCHI>
InChI=1S/C28H26FN5O3/c1-18-4-9-23(29)24(15-18)33-28(35)32-21-7-5-19(6-8-21)22-17-37-26-20(16-31-27(30)25(22)26)3-2-10-34-11-13-36-14-12-34/h4-9,15-17H,10-14H2,1H3,(H2,30,31)(H2,32,33,35)

> <PUBCHEM_IUPAC_INCHIKEY>
GJKVMXDBPDDFHI-UHFFFAOYSA-N

> <PUBCHEM_XLOGP3_AA>
3.4

> <PUBCHEM_EXACT_MASS>
499.20196787

> <PUBCHEM_MOLECULAR_FORMULA>
C28H26FN5O3

> <PUBCHEM_MOLECULAR_WEIGHT>
499.5

> <PUBCHEM_SMILES>
CC1=CC(=C(C=C1)F)NC(=O)NC2=CC=C(C=C2)C3=COC4=C3C(=NC=C4C#CCN5CCOCC5)N

> <PUBCHEM_OPENEYE_CAN_SMILES>
CC1=CC(=C(C=C1)F)NC(=O)NC2=CC=C(C=C2)C3=COC4=C3C(=NC=C4C#CCN5CCOCC5)N

> <PUBCHEM_OPENEYE_ISO_SMILES>
CC1=CC(=C(C=C1)F)NC(=O)NC2=CC=C(C=C2)C3=COC4=C3C(=NC=C4C#CCN5CCOCC5)N

> <PUBCHEM_CACTVS_TPSA>
106

> <PUBCHEM_MONOISOTOPIC_WEIGHT>
499.20196787

> <PUBCHEM_TOTAL_CHARGE>
0

> <PUBCHEM_HEAVY_ATOM_COUNT>
37

> <PUBCHEM_ATOM_DEF_STEREO_COUNT>
0

> <PUBCHEM_ATOM_UDEF_STEREO_COUNT>
0

> <PUBCHEM_BOND_DEF_STEREO_COUNT>
0

> <PUBCHEM_BOND_UDEF_STEREO_COUNT>
0

> <PUBCHEM_ISOTOPIC_ATOM_COUNT>
0

> <PUBCHEM_COMPONENT_COUNT>
1

> <PUBCHEM_CACTVS_TAUTO_COUNT>
-1

> <PUBCHEM_COORDINATE_TYPE>
1
5
255

> <PUBCHEM_BONDANNOTATIONS>
15  16  8
15  17  8
15  21  8
16  22  8
17  20  8
19  24  8
19  25  8
20  26  8
24  28  8
25  29  8
27  28  8
27  29  8
3  17  8
3  22  8
31  33  8
31  34  8
32  33  8
32  35  8
34  36  8
35  36  8
6  21  8
6  26  8

$$$$
