49830623
  -OEChem-03202501332D

 81 87  0     0  0  0  0  0  0999 V2000
    7.8314   -8.0729    0.0000 O   0  0  0  0  0  0  0  0  0  0  0  0
    7.5673    3.6604    0.0000 O   0  0  0  0  0  0  0  0  0  0  0  0
    5.9209   -5.0152    0.0000 N   0  0  0  0  0  0  0  0  0  0  0  0
    4.6783   -1.2131    0.0000 N   0  0  0  0  0  0  0  0  0  0  0  0
    6.5422   -6.9162    0.0000 N   0  0  0  0  0  0  0  0  0  0  0  0
    5.2619   -0.4083    0.0000 N   0  0  0  0  0  0  0  0  0  0  0  0
    2.8660   -1.4084    0.0000 N   0  0  0  0  0  0  0  0  0  0  0  0
    2.0000    0.0917    0.0000 N   0  0  0  0  0  0  0  0  0  0  0  0
    2.8660    1.5916    0.0000 N   0  0  0  0  0  0  0  0  0  0  0  0
    5.9209    4.1985    0.0000 N   0  0  0  0  0  0  0  0  0  0  0  0
    6.6265    6.1599    0.0000 N   0  0  0  0  0  0  0  0  0  0  0  0
    5.6103   -4.0646    0.0000 C   0  0  0  0  0  0  0  0  0  0  0  0
    4.9889   -2.1636    0.0000 C   0  0  0  0  0  0  0  0  0  0  0  0
    6.2781   -3.3203    0.0000 C   0  0  0  0  0  0  0  0  0  0  0  0
    4.6318   -3.8584    0.0000 C   0  0  0  0  0  0  0  0  0  0  0  0
    5.9674   -2.3698    0.0000 C   0  0  0  0  0  0  0  0  0  0  0  0
    4.3211   -2.9079    0.0000 C   0  0  0  0  0  0  0  0  0  0  0  0
    5.2531   -5.7595    0.0000 C   0  0  0  0  0  0  0  0  0  0  0  0
    6.8994   -5.2214    0.0000 C   0  0  0  0  0  0  0  0  0  0  0  0
    5.5637   -6.7100    0.0000 C   0  0  0  0  0  0  0  0  0  0  0  0
    7.2101   -6.1719    0.0000 C   0  0  0  0  0  0  0  0  0  0  0  0
    3.7320   -0.9083    0.0000 C   0  0  0  0  0  0  0  0  0  0  0  0
    3.7320    0.0917    0.0000 C   0  0  0  0  0  0  0  0  0  0  0  0
    4.6783    0.3964    0.0000 C   0  0  0  0  0  0  0  0  0  0  0  0
    6.8529   -7.8667    0.0000 C   0  0  0  0  0  0  0  0  0  0  0  0
    2.8660    0.5917    0.0000 C   0  0  0  0  0  0  0  0  0  0  0  0
    4.9889    1.3469    0.0000 C   0  0  0  0  0  0  0  0  0  0  0  0
    6.1851   -8.6110    0.0000 C   0  0  0  0  0  0  0  0  0  0  0  0
    2.0000   -0.9083    0.0000 C   0  0  0  0  0  0  0  0  0  0  0  0
    4.3211    2.0912    0.0000 C   0  0  0  0  0  0  0  0  0  0  0  0
    5.9674    1.5531    0.0000 C   0  0  0  0  0  0  0  0  0  0  0  0
    4.6318    3.0417    0.0000 C   0  0  0  0  0  0  0  0  0  0  0  0
    6.2781    2.5036    0.0000 C   0  0  0  0  0  0  0  0  0  0  0  0
    5.6103    3.2480    0.0000 C   0  0  0  0  0  0  0  0  0  0  0  0
    6.8994    4.4047    0.0000 C   0  0  0  0  0  0  0  0  0  0  0  0
    7.2101    5.3552    0.0000 C   0  0  0  0  0  0  0  0  0  0  0  0
    7.2101    6.9647    0.0000 C   0  0  0  0  0  0  0  0  0  0  0  0
    8.1606    6.6540    0.0000 C   0  0  0  0  0  0  0  0  0  0  0  0
    8.1563    5.6599    0.0000 C   0  0  0  0  0  0  0  0  0  0  0  0
    5.6265    6.1599    0.0000 C   0  0  0  0  0  0  0  0  0  0  0  0
    7.0039    7.9432    0.0000 C   0  0  0  0  0  0  0  0  0  0  0  0
    8.9049    7.3218    0.0000 C   0  0  0  0  0  0  0  0  0  0  0  0
    7.7482    8.6110    0.0000 C   0  0  0  0  0  0  0  0  0  0  0  0
    8.6987    8.3004    0.0000 C   0  0  0  0  0  0  0  0  0  0  0  0
    6.2169   -4.1925    0.0000 H   0  0  0  0  0  0  0  0  0  0  0  0
    5.4030   -1.7021    0.0000 H   0  0  0  0  0  0  0  0  0  0  0  0
    6.6607   -3.8082    0.0000 H   0  0  0  0  0  0  0  0  0  0  0  0
    6.8250   -3.0283    0.0000 H   0  0  0  0  0  0  0  0  0  0  0  0
    4.0179   -3.9458    0.0000 H   0  0  0  0  0  0  0  0  0  0  0  0
    4.6112   -4.4781    0.0000 H   0  0  0  0  0  0  0  0  0  0  0  0
    6.5812   -2.2825    0.0000 H   0  0  0  0  0  0  0  0  0  0  0  0
    5.9880   -1.7502    0.0000 H   0  0  0  0  0  0  0  0  0  0  0  0
    3.9385   -2.4200    0.0000 H   0  0  0  0  0  0  0  0  0  0  0  0
    3.7742   -3.1999    0.0000 H   0  0  0  0  0  0  0  0  0  0  0  0
    4.8705   -5.2716    0.0000 H   0  0  0  0  0  0  0  0  0  0  0  0
    4.7062   -6.0515    0.0000 H   0  0  0  0  0  0  0  0  0  0  0  0
    7.5132   -5.1340    0.0000 H   0  0  0  0  0  0  0  0  0  0  0  0
    6.9200   -4.6017    0.0000 H   0  0  0  0  0  0  0  0  0  0  0  0
    4.9499   -6.7973    0.0000 H   0  0  0  0  0  0  0  0  0  0  0  0
    5.5432   -7.3296    0.0000 H   0  0  0  0  0  0  0  0  0  0  0  0
    7.5926   -6.6598    0.0000 H   0  0  0  0  0  0  0  0  0  0  0  0
    7.7570   -5.8799    0.0000 H   0  0  0  0  0  0  0  0  0  0  0  0
    5.7236   -8.1970    0.0000 H   0  0  0  0  0  0  0  0  0  0  0  0
    5.7710   -9.0725    0.0000 H   0  0  0  0  0  0  0  0  0  0  0  0
    6.6465   -9.0251    0.0000 H   0  0  0  0  0  0  0  0  0  0  0  0
    1.4631   -1.2184    0.0000 H   0  0  0  0  0  0  0  0  0  0  0  0
    3.7144    1.9634    0.0000 H   0  0  0  0  0  0  0  0  0  0  0  0
    6.3815    1.0917    0.0000 H   0  0  0  0  0  0  0  0  0  0  0  0
    2.3291    1.9016    0.0000 H   0  0  0  0  0  0  0  0  0  0  0  0
    3.4030    1.9016    0.0000 H   0  0  0  0  0  0  0  0  0  0  0  0
    4.2177    3.5032    0.0000 H   0  0  0  0  0  0  0  0  0  0  0  0
    6.8848    2.6315    0.0000 H   0  0  0  0  0  0  0  0  0  0  0  0
    5.5069    4.6599    0.0000 H   0  0  0  0  0  0  0  0  0  0  0  0
    8.6566    5.2938    0.0000 H   0  0  0  0  0  0  0  0  0  0  0  0
    5.6265    6.7799    0.0000 H   0  0  0  0  0  0  0  0  0  0  0  0
    5.0065    6.1599    0.0000 H   0  0  0  0  0  0  0  0  0  0  0  0
    5.6265    5.5399    0.0000 H   0  0  0  0  0  0  0  0  0  0  0  0
    6.4146    8.1358    0.0000 H   0  0  0  0  0  0  0  0  0  0  0  0
    9.4942    7.1292    0.0000 H   0  0  0  0  0  0  0  0  0  0  0  0
    7.6203    9.2177    0.0000 H   0  0  0  0  0  0  0  0  0  0  0  0
    9.1602    8.7144    0.0000 H   0  0  0  0  0  0  0  0  0  0  0  0
  1 25  2  0  0  0  0
  2 35  2  0  0  0  0
  3 12  1  0  0  0  0
  3 18  1  0  0  0  0
  3 19  1  0  0  0  0
  4  6  1  0  0  0  0
  4 13  1  0  0  0  0
  4 22  1  0  0  0  0
  5 20  1  0  0  0  0
  5 21  1  0  0  0  0
  5 25  1  0  0  0  0
  6 24  2  0  0  0  0
  7 22  2  0  0  0  0
  7 29  1  0  0  0  0
  8 26  1  0  0  0  0
  8 29  2  0  0  0  0
  9 26  1  0  0  0  0
  9 69  1  0  0  0  0
  9 70  1  0  0  0  0
 10 34  1  0  0  0  0
 10 35  1  0  0  0  0
 10 73  1  0  0  0  0
 11 36  1  0  0  0  0
 11 37  1  0  0  0  0
 11 40  1  0  0  0  0
 12 14  1  0  0  0  0
 12 15  1  0  0  0  0
 12 45  1  0  0  0  0
 13 16  1  0  0  0  0
 13 17  1  0  0  0  0
 13 46  1  0  0  0  0
 14 16  1  0  0  0  0
 14 47  1  0  0  0  0
 14 48  1  0  0  0  0
 15 17  1  0  0  0  0
 15 49  1  0  0  0  0
 15 50  1  0  0  0  0
 16 51  1  0  0  0  0
 16 52  1  0  0  0  0
 17 53  1  0  0  0  0
 17 54  1  0  0  0  0
 18 20  1  0  0  0  0
 18 55  1  0  0  0  0
 18 56  1  0  0  0  0
 19 21  1  0  0  0  0
 19 57  1  0  0  0  0
 19 58  1  0  0  0  0
 20 59  1  0  0  0  0
 20 60  1  0  0  0  0
 21 61  1  0  0  0  0
 21 62  1  0  0  0  0
 22 23  1  0  0  0  0
 23 24  1  0  0  0  0
 23 26  2  0  0  0  0
 24 27  1  0  0  0  0
 25 28  1  0  0  0  0
 27 30  2  0  0  0  0
 27 31  1  0  0  0  0
 28 63  1  0  0  0  0
 28 64  1  0  0  0  0
 28 65  1  0  0  0  0
 29 66  1  0  0  0  0
 30 32  1  0  0  0  0
 30 67  1  0  0  0  0
 31 33  2  0  0  0  0
 31 68  1  0  0  0  0
 32 34  2  0  0  0  0
 32 71  1  0  0  0  0
 33 34  1  0  0  0  0
 33 72  1  0  0  0  0
 35 36  1  0  0  0  0
 36 39  2  0  0  0  0
 37 38  1  0  0  0  0
 37 41  2  0  0  0  0
 38 39  1  0  0  0  0
 38 42  2  0  0  0  0
 39 74  1  0  0  0  0
 40 75  1  0  0  0  0
 40 76  1  0  0  0  0
 40 77  1  0  0  0  0
 41 43  1  0  0  0  0
 41 78  1  0  0  0  0
 42 44  1  0  0  0  0
 42 79  1  0  0  0  0
 43 44  2  0  0  0  0
 43 80  1  0  0  0  0
 44 81  1  0  0  0  0
M  END
> <PUBCHEM_COMPOUND_CID>
49830623

> <PUBCHEM_COMPOUND_CANONICALIZED>
1

> <PUBCHEM_CACTVS_COMPLEXITY>
1010

> <PUBCHEM_CACTVS_HBOND_ACCEPTOR>
7

> <PUBCHEM_CACTVS_HBOND_DONOR>
2

> <PUBCHEM_CACTVS_ROTATABLE_BOND>
5

> <PUBCHEM_CACTVS_SUBSKEYS>
AAADcfB/8AAAAAAAAAAAAAAAAAAAAWLAAAA8eMECAAAAAFgB/gAAHgAYAAAADCjBnwQ38P/MEACqAydzdACShCs3gqAd2CG4ZNiIaPLA3fGUpQhongLIyacYicCeCAAAAAACAAAQAQAAAAQAAAAAAAAAAA==

> <PUBCHEM_IUPAC_OPENEYE_NAME>
N-[4-[1-[4-(4-acetylpiperazin-1-yl)cyclohexyl]-4-amino-pyrazolo[3,4-d]pyrimidin-3-yl]phenyl]-1-methyl-indole-2-carboxamide

> <PUBCHEM_IUPAC_CAS_NAME>
N-[4-[1-[4-(4-acetyl-1-piperazinyl)cyclohexyl]-4-amino-3-pyrazolo[3,4-d]pyrimidinyl]phenyl]-1-methyl-2-indolecarboxamide

> <PUBCHEM_IUPAC_NAME_MARKUP>
<I>N</I>-[4-[1-[4-(4-acetylpiperazin-1-yl)cyclohexyl]-4-aminopyrazolo[3,4-d]pyrimidin-3-yl]phenyl]-1-methylindole-2-carboxamide

> <PUBCHEM_IUPAC_NAME>
N-[4-[1-[4-(4-acetylpiperazin-1-yl)cyclohexyl]-4-aminopyrazolo[3,4-d]pyrimidin-3-yl]phenyl]-1-methylindole-2-carboxamide

> <PUBCHEM_IUPAC_SYSTEMATIC_NAME>
N-[4-[4-azanyl-1-[4-(4-ethanoylpiperazin-1-yl)cyclohexyl]pyrazolo[3,4-d]pyrimidin-3-yl]phenyl]-1-methyl-indole-2-carboxamide

> <PUBCHEM_IUPAC_TRADITIONAL_NAME>
N-[4-[1-[4-(4-acetylpiperazino)cyclohexyl]-4-amino-pyrazolo[3,4-d]pyrimidin-3-yl]phenyl]-1-methyl-indole-2-carboxamide

> <PUBCHEM_IUPAC_INCHI>
InChI=1S/C33H37N9O2/c1-21(43)40-15-17-41(18-16-40)25-11-13-26(14-12-25)42-32-29(31(34)35-20-36-32)30(38-42)22-7-9-24(10-8-22)37-33(44)28-19-23-5-3-4-6-27(23)39(28)2/h3-10,19-20,25-26H,11-18H2,1-2H3,(H,37,44)(H2,34,35,36)

> <PUBCHEM_IUPAC_INCHIKEY>
GXJSLIOOPZRPEV-UHFFFAOYSA-N

> <PUBCHEM_XLOGP3_AA>
3.3

> <PUBCHEM_EXACT_MASS>
591.30702146

> <PUBCHEM_MOLECULAR_FORMULA>
C33H37N9O2

> <PUBCHEM_MOLECULAR_WEIGHT>
591.7

> <PUBCHEM_SMILES>
CC(=O)N1CCN(CC1)C2CCC(CC2)N3C4=NC=NC(=C4C(=N3)C5=CC=C(C=C5)NC(=O)C6=CC7=CC=CC=C7N6C)N

> <PUBCHEM_OPENEYE_CAN_SMILES>
CC(=O)N1CCN(CC1)C2CCC(CC2)N3C4=NC=NC(=C4C(=N3)C5=CC=C(C=C5)NC(=O)C6=CC7=CC=CC=C7N6C)N

> <PUBCHEM_OPENEYE_ISO_SMILES>
CC(=O)N1CCN(CC1)C2CCC(CC2)N3C4=NC=NC(=C4C(=N3)C5=CC=C(C=C5)NC(=O)C6=CC7=CC=CC=C7N6C)N

> <PUBCHEM_CACTVS_TPSA>
127

> <PUBCHEM_MONOISOTOPIC_WEIGHT>
591.30702146

> <PUBCHEM_TOTAL_CHARGE>
0

> <PUBCHEM_HEAVY_ATOM_COUNT>
44

> <PUBCHEM_ATOM_DEF_STEREO_COUNT>
0

> <PUBCHEM_ATOM_UDEF_STEREO_COUNT>
0

> <PUBCHEM_BOND_DEF_STEREO_COUNT>
0

> <PUBCHEM_BOND_UDEF_STEREO_COUNT>
0

> <PUBCHEM_ISOTOPIC_ATOM_COUNT>
0

> <PUBCHEM_COMPONENT_COUNT>
1

> <PUBCHEM_CACTVS_TAUTO_COUNT>
-1

> <PUBCHEM_COORDINATE_TYPE>
1
5
255

> <PUBCHEM_BONDANNOTATIONS>
11  36  8
11  37  8
22  23  8
23  24  8
23  26  8
27  30  8
27  31  8
30  32  8
31  33  8
32  34  8
33  34  8
36  39  8
37  38  8
37  41  8
38  39  8
38  42  8
4  22  8
4  6  8
41  43  8
42  44  8
43  44  8
6  24  8
7  22  8
7  29  8
8  26  8
8  29  8

$$$$
