2404
  -OEChem-03202506152D

 56 61  0     1  0  0  0  0  0999 V2000
    8.1524    0.7666    0.0000 O   0  0  0  0  0  0  0  0  0  0  0  0
    5.3045    2.8357    0.0000 O   0  0  0  0  0  0  0  0  0  0  0  0
    6.8923   -2.0510    0.0000 N   0  0  0  0  0  0  0  0  0  0  0  0
   10.5690   -2.1652    0.0000 N   0  0  0  0  0  0  0  0  0  0  0  0
    6.8923    2.0267    0.0000 N   0  0  0  0  0  0  0  0  0  0  0  0
    3.3318   -0.1816    0.0000 N   0  0  0  0  0  0  0  0  0  0  0  0
    8.9197   -1.6364    0.0000 C   0  0  3  0  0  0  0  0  0  0  0  0
    8.2167   -0.8677    0.0000 C   0  0  0  0  0  0  0  0  0  0  0  0
    7.2013   -1.0999    0.0000 C   0  0  0  0  0  0  0  0  0  0  0  0
    8.5978   -2.6270    0.0000 C   0  0  0  0  0  0  0  0  0  0  0  0
    7.5773   -2.8357    0.0000 C   0  0  0  0  0  0  0  0  0  0  0  0
    6.3923   -0.5121    0.0000 C   0  0  0  0  0  0  0  0  0  0  0  0
    5.8923   -2.0510    0.0000 C   0  0  0  0  0  0  0  0  0  0  0  0
    5.5833   -1.0999    0.0000 C   0  0  0  0  0  0  0  0  0  0  0  0
    9.8970   -1.4247    0.0000 C   0  0  0  0  0  0  0  0  0  0  0  0
    6.3923    0.4879    0.0000 C   0  0  0  0  0  0  0  0  0  0  0  0
    5.2073   -2.8357    0.0000 C   0  0  0  0  0  0  0  0  0  0  0  0
    5.5833    1.0756    0.0000 C   0  0  0  0  0  0  0  0  0  0  0  0
    4.5679   -0.8677    0.0000 C   0  0  0  0  0  0  0  0  0  0  0  0
    7.2013    1.0756    0.0000 C   0  0  0  0  0  0  0  0  0  0  0  0
    4.6322    0.7666    0.0000 C   0  0  0  0  0  0  0  0  0  0  0  0
    4.1868   -2.6270    0.0000 C   0  0  0  0  0  0  0  0  0  0  0  0
    3.8649   -1.6364    0.0000 C   0  0  0  0  0  0  0  0  0  0  0  0
    5.8923    2.0267    0.0000 C   0  0  0  0  0  0  0  0  0  0  0  0
    3.8285    1.3516    0.0000 C   0  0  0  0  0  0  0  0  0  0  0  0
    4.3258   -0.1791    0.0000 C   0  0  0  0  0  0  0  0  0  0  0  0
    3.0205    0.7624    0.0000 C   0  0  0  0  0  0  0  0  0  0  0  0
    3.7222    2.3460    0.0000 C   0  0  0  0  0  0  0  0  0  0  0  0
    2.1062    1.1676    0.0000 C   0  0  0  0  0  0  0  0  0  0  0  0
    2.7468   -0.9927    0.0000 C   0  0  0  0  0  0  0  0  0  0  0  0
    2.8080    2.7511    0.0000 C   0  0  0  0  0  0  0  0  0  0  0  0
    2.0000    2.1619    0.0000 C   0  0  0  0  0  0  0  0  0  0  0  0
    9.1078   -1.0456    0.0000 H   0  0  0  0  0  0  0  0  0  0  0  0
    8.7391   -0.5337    0.0000 H   0  0  0  0  0  0  0  0  0  0  0  0
    7.9771   -0.2959    0.0000 H   0  0  0  0  0  0  0  0  0  0  0  0
    8.6162   -3.2467    0.0000 H   0  0  0  0  0  0  0  0  0  0  0  0
    9.2115   -2.7149    0.0000 H   0  0  0  0  0  0  0  0  0  0  0  0
    7.0473   -3.1575    0.0000 H   0  0  0  0  0  0  0  0  0  0  0  0
    7.8036   -3.4129    0.0000 H   0  0  0  0  0  0  0  0  0  0  0  0
   10.4215   -1.0941    0.0000 H   0  0  0  0  0  0  0  0  0  0  0  0
    9.6625   -0.8507    0.0000 H   0  0  0  0  0  0  0  0  0  0  0  0
    5.4057   -3.4231    0.0000 H   0  0  0  0  0  0  0  0  0  0  0  0
    4.3831   -0.2758    0.0000 H   0  0  0  0  0  0  0  0  0  0  0  0
   11.1749   -2.0340    0.0000 H   0  0  0  0  0  0  0  0  0  0  0  0
   10.3797   -2.7556    0.0000 H   0  0  0  0  0  0  0  0  0  0  0  0
    3.7737   -3.0894    0.0000 H   0  0  0  0  0  0  0  0  0  0  0  0
    3.2590   -1.5051    0.0000 H   0  0  0  0  0  0  0  0  0  0  0  0
    7.2567    2.5283    0.0000 H   0  0  0  0  0  0  0  0  0  0  0  0
    4.6911   -0.6800    0.0000 H   0  0  0  0  0  0  0  0  0  0  0  0
    4.2232    2.7113    0.0000 H   0  0  0  0  0  0  0  0  0  0  0  0
    1.6053    0.8023    0.0000 H   0  0  0  0  0  0  0  0  0  0  0  0
    2.2439   -0.6300    0.0000 H   0  0  0  0  0  0  0  0  0  0  0  0
    2.3841   -1.4955    0.0000 H   0  0  0  0  0  0  0  0  0  0  0  0
    3.2496   -1.3554    0.0000 H   0  0  0  0  0  0  0  0  0  0  0  0
    2.7421    3.3676    0.0000 H   0  0  0  0  0  0  0  0  0  0  0  0
    1.4332    2.4131    0.0000 H   0  0  0  0  0  0  0  0  0  0  0  0
  1 20  2  0  0  0  0
  2 24  2  0  0  0  0
  3  9  1  0  0  0  0
  3 11  1  0  0  0  0
  3 13  1  0  0  0  0
  4 15  1  0  0  0  0
  4 44  1  0  0  0  0
  4 45  1  0  0  0  0
  5 20  1  0  0  0  0
  5 24  1  0  0  0  0
  5 48  1  0  0  0  0
  6 26  1  0  0  0  0
  6 27  1  0  0  0  0
  6 30  1  0  0  0  0
  7  8  1  0  0  0  0
  7 10  1  0  0  0  0
  7 15  1  0  0  0  0
  7 33  1  0  0  0  0
  8  9  1  0  0  0  0
  8 34  1  0  0  0  0
  8 35  1  0  0  0  0
  9 12  2  0  0  0  0
 10 11  1  0  0  0  0
 10 36  1  0  0  0  0
 10 37  1  0  0  0  0
 11 38  1  0  0  0  0
 11 39  1  0  0  0  0
 12 14  1  0  0  0  0
 12 16  1  0  0  0  0
 13 14  1  0  0  0  0
 13 17  2  0  0  0  0
 14 19  2  0  0  0  0
 15 40  1  0  0  0  0
 15 41  1  0  0  0  0
 16 18  2  0  0  0  0
 16 20  1  0  0  0  0
 17 22  1  0  0  0  0
 17 42  1  0  0  0  0
 18 21  1  0  0  0  0
 18 24  1  0  0  0  0
 19 23  1  0  0  0  0
 19 43  1  0  0  0  0
 21 25  1  0  0  0  0
 21 26  2  0  0  0  0
 22 23  2  0  0  0  0
 22 46  1  0  0  0  0
 23 47  1  0  0  0  0
 25 27  1  0  0  0  0
 25 28  2  0  0  0  0
 26 49  1  0  0  0  0
 27 29  2  0  0  0  0
 28 31  1  0  0  0  0
 28 50  1  0  0  0  0
 29 32  1  0  0  0  0
 29 51  1  0  0  0  0
 30 52  1  0  0  0  0
 30 53  1  0  0  0  0
 30 54  1  0  0  0  0
 31 32  2  0  0  0  0
 31 55  1  0  0  0  0
 32 56  1  0  0  0  0
M  END
> <PUBCHEM_COMPOUND_CID>
2404

> <PUBCHEM_COMPOUND_CANONICALIZED>
1

> <PUBCHEM_CACTVS_COMPLEXITY>
825

> <PUBCHEM_CACTVS_HBOND_ACCEPTOR>
3

> <PUBCHEM_CACTVS_HBOND_DONOR>
2

> <PUBCHEM_CACTVS_ROTATABLE_BOND>
3

> <PUBCHEM_CACTVS_SUBSKEYS>
AAADceB7sAAAAAAAAAAAAAAAAAAAAWLEAAA8YIAAAAAAAFgB/gAAHgAQAAAADQjBngQ+wPPMEACoAzV3VACCgCAxAiAI2KE4ZNgIIPLAlZGEIAhglCDIyQccicCegAAAAAACAAAAAAAAAAQAAAAAAAAAAA==

> <PUBCHEM_IUPAC_OPENEYE_NAME>
3-[8-(aminomethyl)-6,7,8,9-tetrahydropyrido[1,2-a]indol-10-yl]-4-(1-methylindol-3-yl)pyrrole-2,5-dione

> <PUBCHEM_IUPAC_CAS_NAME>
3-[8-(aminomethyl)-6,7,8,9-tetrahydropyrido[1,2-a]indol-10-yl]-4-(1-methyl-3-indolyl)pyrrole-2,5-dione

> <PUBCHEM_IUPAC_NAME_MARKUP>
3-[8-(aminomethyl)-6,7,8,9-tetrahydropyrido[1,2-a]indol-10-yl]-4-(1-methylindol-3-yl)pyrrole-2,5-dione

> <PUBCHEM_IUPAC_NAME>
3-[8-(aminomethyl)-6,7,8,9-tetrahydropyrido[1,2-a]indol-10-yl]-4-(1-methylindol-3-yl)pyrrole-2,5-dione

> <PUBCHEM_IUPAC_SYSTEMATIC_NAME>
3-[8-(aminomethyl)-6,7,8,9-tetrahydropyrido[1,2-a]indol-10-yl]-4-(1-methylindol-3-yl)pyrrole-2,5-dione

> <PUBCHEM_IUPAC_TRADITIONAL_NAME>
3-[8-(aminomethyl)-6,7,8,9-tetrahydropyrid[1,2-a]indol-10-yl]-4-(1-methylindol-3-yl)-3-pyrroline-2,5-quinone

> <PUBCHEM_IUPAC_INCHI>
InChI=1S/C26H24N4O2/c1-29-14-18(16-6-2-4-8-19(16)29)23-24(26(32)28-25(23)31)22-17-7-3-5-9-20(17)30-11-10-15(13-27)12-21(22)30/h2-9,14-15H,10-13,27H2,1H3,(H,28,31,32)

> <PUBCHEM_IUPAC_INCHIKEY>
QQKKPWJFHBFCTH-UHFFFAOYSA-N

> <PUBCHEM_XLOGP3_AA>
2.4

> <PUBCHEM_EXACT_MASS>
424.18992602

> <PUBCHEM_MOLECULAR_FORMULA>
C26H24N4O2

> <PUBCHEM_MOLECULAR_WEIGHT>
424.5

> <PUBCHEM_SMILES>
CN1C=C(C2=CC=CC=C21)C3=C(C(=O)NC3=O)C4=C5CC(CCN5C6=CC=CC=C64)CN

> <PUBCHEM_OPENEYE_CAN_SMILES>
CN1C=C(C2=CC=CC=C21)C3=C(C(=O)NC3=O)C4=C5CC(CCN5C6=CC=CC=C64)CN

> <PUBCHEM_OPENEYE_ISO_SMILES>
CN1C=C(C2=CC=CC=C21)C3=C(C(=O)NC3=O)C4=C5CC(CCN5C6=CC=CC=C64)CN

> <PUBCHEM_CACTVS_TPSA>
82.1

> <PUBCHEM_MONOISOTOPIC_WEIGHT>
424.18992602

> <PUBCHEM_TOTAL_CHARGE>
0

> <PUBCHEM_HEAVY_ATOM_COUNT>
32

> <PUBCHEM_ATOM_DEF_STEREO_COUNT>
0

> <PUBCHEM_ATOM_UDEF_STEREO_COUNT>
1

> <PUBCHEM_BOND_DEF_STEREO_COUNT>
0

> <PUBCHEM_BOND_UDEF_STEREO_COUNT>
0

> <PUBCHEM_ISOTOPIC_ATOM_COUNT>
0

> <PUBCHEM_COMPONENT_COUNT>
1

> <PUBCHEM_CACTVS_TAUTO_COUNT>
-1

> <PUBCHEM_COORDINATE_TYPE>
1
5
255

> <PUBCHEM_BONDANNOTATIONS>
12  14  8
13  14  8
13  17  8
14  19  8
17  22  8
19  23  8
21  25  8
21  26  8
22  23  8
25  27  8
25  28  8
27  29  8
28  31  8
29  32  8
3  13  8
3  9  8
31  32  8
6  26  8
6  27  8
7  15  3
9  12  8

$$$$
