25016360
  -OEChem-03202503172D

 57 61  0     0  0  0  0  0  0999 V2000
    7.2619   -2.6758    0.0000 F   0  0  0  0  0  0  0  0  0  0  0  0
   10.2619   -0.9437    0.0000 F   0  0  0  0  0  0  0  0  0  0  0  0
   10.5243    3.5374    0.0000 O   0  0  0  0  0  0  0  0  0  0  0  0
    4.7320   -0.4437    0.0000 N   0  0  0  0  0  0  0  0  0  0  0  0
    3.0000   -1.4437    0.0000 N   0  0  0  0  0  0  0  0  0  0  0  0
    5.6783   -1.7484    0.0000 N   0  0  0  0  0  0  0  0  0  0  0  0
    6.9674    1.0178    0.0000 N   0  0  0  0  0  0  0  0  0  0  0  0
    8.2566    2.1745    0.0000 N   0  0  0  0  0  0  0  0  0  0  0  0
    6.6103    2.7126    0.0000 N   0  0  0  0  0  0  0  0  0  0  0  0
    3.0000   -3.4437    0.0000 C   0  0  0  0  0  0  0  0  0  0  0  0
    2.0000   -3.4437    0.0000 C   0  0  0  0  0  0  0  0  0  0  0  0
    2.5000   -4.3097    0.0000 C   0  0  0  0  0  0  0  0  0  0  0  0
    3.8660   -2.9437    0.0000 C   0  0  0  0  0  0  0  0  0  0  0  0
    3.8660   -1.9437    0.0000 C   0  0  0  0  0  0  0  0  0  0  0  0
    4.7320   -1.4437    0.0000 C   0  0  0  0  0  0  0  0  0  0  0  0
    5.6783   -0.1390    0.0000 C   0  0  0  0  0  0  0  0  0  0  0  0
    6.2619   -0.9437    0.0000 C   0  0  0  0  0  0  0  0  0  0  0  0
    3.8660    0.0563    0.0000 C   0  0  0  0  0  0  0  0  0  0  0  0
    3.0000   -0.4437    0.0000 C   0  0  0  0  0  0  0  0  0  0  0  0
    5.9889    0.8115    0.0000 C   0  0  0  0  0  0  0  0  0  0  0  0
    7.2619   -0.9437    0.0000 C   0  0  0  0  0  0  0  0  0  0  0  0
    9.5458    3.3312    0.0000 C   0  0  0  0  0  0  0  0  0  0  0  0
    8.5673    3.1250    0.0000 C   0  0  0  0  0  0  0  0  0  0  0  0
    5.3211    1.5558    0.0000 C   0  0  0  0  0  0  0  0  0  0  0  0
    7.7619   -1.8097    0.0000 C   0  0  0  0  0  0  0  0  0  0  0  0
    7.7619   -0.0777    0.0000 C   0  0  0  0  0  0  0  0  0  0  0  0
    7.2781    1.9683    0.0000 C   0  0  0  0  0  0  0  0  0  0  0  0
    9.3396    4.3097    0.0000 C   0  0  0  0  0  0  0  0  0  0  0  0
    9.7520    2.3527    0.0000 C   0  0  0  0  0  0  0  0  0  0  0  0
    5.6318    2.5064    0.0000 C   0  0  0  0  0  0  0  0  0  0  0  0
    8.7619   -1.8097    0.0000 C   0  0  0  0  0  0  0  0  0  0  0  0
    8.7619   -0.0777    0.0000 C   0  0  0  0  0  0  0  0  0  0  0  0
    9.2619   -0.9437    0.0000 C   0  0  0  0  0  0  0  0  0  0  0  0
    2.8395   -2.8448    0.0000 H   0  0  0  0  0  0  0  0  0  0  0  0
    1.8923   -2.8331    0.0000 H   0  0  0  0  0  0  0  0  0  0  0  0
    1.4174   -3.6558    0.0000 H   0  0  0  0  0  0  0  0  0  0  0  0
    2.0250   -4.7083    0.0000 H   0  0  0  0  0  0  0  0  0  0  0  0
    2.9750   -4.7083    0.0000 H   0  0  0  0  0  0  0  0  0  0  0  0
    4.0781   -3.5263    0.0000 H   0  0  0  0  0  0  0  0  0  0  0  0
    4.4766   -2.8360    0.0000 H   0  0  0  0  0  0  0  0  0  0  0  0
    3.8660    0.6763    0.0000 H   0  0  0  0  0  0  0  0  0  0  0  0
    2.4631   -0.1337    0.0000 H   0  0  0  0  0  0  0  0  0  0  0  0
    8.5467    3.7447    0.0000 H   0  0  0  0  0  0  0  0  0  0  0  0
    7.9534    3.2124    0.0000 H   0  0  0  0  0  0  0  0  0  0  0  0
    4.7144    1.4280    0.0000 H   0  0  0  0  0  0  0  0  0  0  0  0
    7.4519    0.4592    0.0000 H   0  0  0  0  0  0  0  0  0  0  0  0
    8.6707    1.7130    0.0000 H   0  0  0  0  0  0  0  0  0  0  0  0
    9.9462    4.4376    0.0000 H   0  0  0  0  0  0  0  0  0  0  0  0
    9.2117    4.9164    0.0000 H   0  0  0  0  0  0  0  0  0  0  0  0
    8.7329    4.1819    0.0000 H   0  0  0  0  0  0  0  0  0  0  0  0
    9.1453    2.2249    0.0000 H   0  0  0  0  0  0  0  0  0  0  0  0
    9.8798    1.7460    0.0000 H   0  0  0  0  0  0  0  0  0  0  0  0
   10.3587    2.4806    0.0000 H   0  0  0  0  0  0  0  0  0  0  0  0
    5.2177    2.9678    0.0000 H   0  0  0  0  0  0  0  0  0  0  0  0
    9.0719   -2.3467    0.0000 H   0  0  0  0  0  0  0  0  0  0  0  0
    9.0719    0.4592    0.0000 H   0  0  0  0  0  0  0  0  0  0  0  0
   10.7169    4.1268    0.0000 H   0  0  0  0  0  0  0  0  0  0  0  0
  1 25  1  0  0  0  0
  2 33  1  0  0  0  0
  3 22  1  0  0  0  0
  3 57  1  0  0  0  0
  4 15  1  0  0  0  0
  4 16  1  0  0  0  0
  4 18  1  0  0  0  0
  5 14  2  0  0  0  0
  5 19  1  0  0  0  0
  6 15  2  0  0  0  0
  6 17  1  0  0  0  0
  7 20  2  0  0  0  0
  7 27  1  0  0  0  0
  8 23  1  0  0  0  0
  8 27  1  0  0  0  0
  8 47  1  0  0  0  0
  9 27  2  0  0  0  0
  9 30  1  0  0  0  0
 10 11  1  0  0  0  0
 10 12  1  0  0  0  0
 10 13  1  0  0  0  0
 10 34  1  0  0  0  0
 11 12  1  0  0  0  0
 11 35  1  0  0  0  0
 11 36  1  0  0  0  0
 12 37  1  0  0  0  0
 12 38  1  0  0  0  0
 13 14  1  0  0  0  0
 13 39  1  0  0  0  0
 13 40  1  0  0  0  0
 14 15  1  0  0  0  0
 16 17  2  0  0  0  0
 16 20  1  0  0  0  0
 17 21  1  0  0  0  0
 18 19  2  0  0  0  0
 18 41  1  0  0  0  0
 19 42  1  0  0  0  0
 20 24  1  0  0  0  0
 21 25  2  0  0  0  0
 21 26  1  0  0  0  0
 22 23  1  0  0  0  0
 22 28  1  0  0  0  0
 22 29  1  0  0  0  0
 23 43  1  0  0  0  0
 23 44  1  0  0  0  0
 24 30  2  0  0  0  0
 24 45  1  0  0  0  0
 25 31  1  0  0  0  0
 26 32  2  0  0  0  0
 26 46  1  0  0  0  0
 28 48  1  0  0  0  0
 28 49  1  0  0  0  0
 28 50  1  0  0  0  0
 29 51  1  0  0  0  0
 29 52  1  0  0  0  0
 29 53  1  0  0  0  0
 30 54  1  0  0  0  0
 31 33  2  0  0  0  0
 31 55  1  0  0  0  0
 32 33  1  0  0  0  0
 32 56  1  0  0  0  0
M  END
> <PUBCHEM_COMPOUND_CID>
25016360

> <PUBCHEM_COMPOUND_CANONICALIZED>
1

> <PUBCHEM_CACTVS_COMPLEXITY>
667

> <PUBCHEM_CACTVS_HBOND_ACCEPTOR>
8

> <PUBCHEM_CACTVS_HBOND_DONOR>
2

> <PUBCHEM_CACTVS_ROTATABLE_BOND>
7

> <PUBCHEM_CACTVS_SUBSKEYS>
AAADceB7oYAAAAAAAAAAAAAAGAAAAWAAAAA8WIAAAAAAAFgB/AAAHwAQCAAADUzBnww/sJ/MGgCgAzZnZACCgC0xEqAJ2KA4dJiKaOLA2dGUJAhogALYyCcQgMAOAAAAAAAAAAAAAAAAAAAAAAAAAAAAAA==

> <PUBCHEM_IUPAC_OPENEYE_NAME>
1-[[4-[8-(cyclopropylmethyl)-2-(2,4-difluorophenyl)imidazo[1,2-a]pyrazin-3-yl]pyrimidin-2-yl]amino]-2-methyl-propan-2-ol

> <PUBCHEM_IUPAC_CAS_NAME>
1-[[4-[8-(cyclopropylmethyl)-2-(2,4-difluorophenyl)-3-imidazo[1,2-a]pyrazinyl]-2-pyrimidinyl]amino]-2-methyl-2-propanol

> <PUBCHEM_IUPAC_NAME_MARKUP>
1-[[4-[8-(cyclopropylmethyl)-2-(2,4-difluorophenyl)imidazo[1,2-a]pyrazin-3-yl]pyrimidin-2-yl]amino]-2-methylpropan-2-ol

> <PUBCHEM_IUPAC_NAME>
1-[[4-[8-(cyclopropylmethyl)-2-(2,4-difluorophenyl)imidazo[1,2-a]pyrazin-3-yl]pyrimidin-2-yl]amino]-2-methylpropan-2-ol

> <PUBCHEM_IUPAC_SYSTEMATIC_NAME>
1-[[4-[2-[2,4-bis(fluoranyl)phenyl]-8-(cyclopropylmethyl)imidazo[1,2-a]pyrazin-3-yl]pyrimidin-2-yl]amino]-2-methyl-propan-2-ol

> <PUBCHEM_IUPAC_TRADITIONAL_NAME>
1-[[4-[8-(cyclopropylmethyl)-2-(2,4-difluorophenyl)imidazo[1,2-a]pyrazin-3-yl]pyrimidin-2-yl]amino]-2-methyl-propan-2-ol

> <PUBCHEM_IUPAC_INCHI>
InChI=1S/C24H24F2N6O/c1-24(2,33)13-29-23-28-8-7-18(30-23)21-20(16-6-5-15(25)12-17(16)26)31-22-19(11-14-3-4-14)27-9-10-32(21)22/h5-10,12,14,33H,3-4,11,13H2,1-2H3,(H,28,29,30)

> <PUBCHEM_IUPAC_INCHIKEY>
SXBYKNSSEVQWPL-UHFFFAOYSA-N

> <PUBCHEM_XLOGP3_AA>
4.2

> <PUBCHEM_EXACT_MASS>
450.19796573

> <PUBCHEM_MOLECULAR_FORMULA>
C24H24F2N6O

> <PUBCHEM_MOLECULAR_WEIGHT>
450.5

> <PUBCHEM_SMILES>
CC(C)(CNC1=NC=CC(=N1)C2=C(N=C3N2C=CN=C3CC4CC4)C5=C(C=C(C=C5)F)F)O

> <PUBCHEM_OPENEYE_CAN_SMILES>
CC(C)(CNC1=NC=CC(=N1)C2=C(N=C3N2C=CN=C3CC4CC4)C5=C(C=C(C=C5)F)F)O

> <PUBCHEM_OPENEYE_ISO_SMILES>
CC(C)(CNC1=NC=CC(=N1)C2=C(N=C3N2C=CN=C3CC4CC4)C5=C(C=C(C=C5)F)F)O

> <PUBCHEM_CACTVS_TPSA>
88.2

> <PUBCHEM_MONOISOTOPIC_WEIGHT>
450.19796573

> <PUBCHEM_TOTAL_CHARGE>
0

> <PUBCHEM_HEAVY_ATOM_COUNT>
33

> <PUBCHEM_ATOM_DEF_STEREO_COUNT>
0

> <PUBCHEM_ATOM_UDEF_STEREO_COUNT>
0

> <PUBCHEM_BOND_DEF_STEREO_COUNT>
0

> <PUBCHEM_BOND_UDEF_STEREO_COUNT>
0

> <PUBCHEM_ISOTOPIC_ATOM_COUNT>
0

> <PUBCHEM_COMPONENT_COUNT>
1

> <PUBCHEM_CACTVS_TAUTO_COUNT>
-1

> <PUBCHEM_COORDINATE_TYPE>
1
5
255

> <PUBCHEM_BONDANNOTATIONS>
14  15  8
16  17  8
18  19  8
20  24  8
21  25  8
21  26  8
24  30  8
25  31  8
26  32  8
31  33  8
32  33  8
4  15  8
4  16  8
4  18  8
5  14  8
5  19  8
6  15  8
6  17  8
7  20  8
7  27  8
9  27  8
9  30  8

$$$$
