20744821
  -OEChem-03202501212D

 53 57  0     1  0  0  0  0  0999 V2000
    8.3289   -0.1174    0.0000 O   0  0  0  0  0  0  0  0  0  0  0  0
    3.7899   -1.3153    0.0000 N   0  0  0  0  0  0  0  0  0  0  0  0
    6.5968   -1.1174    0.0000 N   0  0  0  0  0  0  0  0  0  0  0  0
   15.0549   -0.6174    0.0000 N   0  0  0  0  0  0  0  0  0  0  0  0
   14.4713   -1.4221    0.0000 N   0  0  0  0  0  0  0  0  0  0  0  0
   10.0610    1.8826    0.0000 N   0  0  0  0  0  0  0  0  0  0  0  0
    5.7308    0.3826    0.0000 C   0  0  0  0  0  0  0  0  0  0  0  0
    6.5968   -0.1174    0.0000 C   0  0  3  0  0  0  0  0  0  0  0  0
    4.8648   -0.1174    0.0000 C   0  0  0  0  0  0  0  0  0  0  0  0
    3.9570    0.2877    0.0000 C   0  0  0  0  0  0  0  0  0  0  0  0
    7.4629    0.3826    0.0000 C   0  0  0  0  0  0  0  0  0  0  0  0
    3.2892   -0.4566    0.0000 C   0  0  0  0  0  0  0  0  0  0  0  0
    4.7617   -1.1061    0.0000 C   0  0  0  0  0  0  0  0  0  0  0  0
    3.6464    1.2382    0.0000 C   0  0  0  0  0  0  0  0  0  0  0  0
    2.3107   -0.2504    0.0000 C   0  0  0  0  0  0  0  0  0  0  0  0
   13.5251   -0.1174    0.0000 C   0  0  0  0  0  0  0  0  0  0  0  0
   11.7930   -0.1174    0.0000 C   0  0  0  0  0  0  0  0  0  0  0  0
    2.6678    1.4444    0.0000 C   0  0  0  0  0  0  0  0  0  0  0  0
    9.1949    0.3826    0.0000 C   0  0  0  0  0  0  0  0  0  0  0  0
    2.0000    0.7001    0.0000 C   0  0  0  0  0  0  0  0  0  0  0  0
   10.9270    0.3826    0.0000 C   0  0  0  0  0  0  0  0  0  0  0  0
   13.5251   -1.1174    0.0000 C   0  0  0  0  0  0  0  0  0  0  0  0
   12.6590    0.3826    0.0000 C   0  0  0  0  0  0  0  0  0  0  0  0
   14.4713    0.1873    0.0000 C   0  0  0  0  0  0  0  0  0  0  0  0
   10.0610   -0.1174    0.0000 C   0  0  0  0  0  0  0  0  0  0  0  0
   11.7930   -1.1174    0.0000 C   0  0  0  0  0  0  0  0  0  0  0  0
   12.6590   -1.6174    0.0000 C   0  0  0  0  0  0  0  0  0  0  0  0
    9.1949    1.3826    0.0000 C   0  0  0  0  0  0  0  0  0  0  0  0
   10.9270    1.3826    0.0000 C   0  0  0  0  0  0  0  0  0  0  0  0
   14.7819    1.1378    0.0000 C   0  0  0  0  0  0  0  0  0  0  0  0
    6.1293    0.8575    0.0000 H   0  0  0  0  0  0  0  0  0  0  0  0
    5.3323    0.8575    0.0000 H   0  0  0  0  0  0  0  0  0  0  0  0
    7.1338   -0.4274    0.0000 H   0  0  0  0  0  0  0  0  0  0  0  0
    7.8614    0.8575    0.0000 H   0  0  0  0  0  0  0  0  0  0  0  0
    7.0644    0.8575    0.0000 H   0  0  0  0  0  0  0  0  0  0  0  0
    5.2232   -1.5202    0.0000 H   0  0  0  0  0  0  0  0  0  0  0  0
    3.5397   -1.8826    0.0000 H   0  0  0  0  0  0  0  0  0  0  0  0
    4.0604    1.6997    0.0000 H   0  0  0  0  0  0  0  0  0  0  0  0
    7.1338   -1.4274    0.0000 H   0  0  0  0  0  0  0  0  0  0  0  0
    6.0599   -1.4274    0.0000 H   0  0  0  0  0  0  0  0  0  0  0  0
    1.8966   -0.7118    0.0000 H   0  0  0  0  0  0  0  0  0  0  0  0
    2.4752    2.0338    0.0000 H   0  0  0  0  0  0  0  0  0  0  0  0
    1.3933    0.8280    0.0000 H   0  0  0  0  0  0  0  0  0  0  0  0
   12.6590    1.0026    0.0000 H   0  0  0  0  0  0  0  0  0  0  0  0
   10.0610   -0.7374    0.0000 H   0  0  0  0  0  0  0  0  0  0  0  0
   11.2561   -1.4274    0.0000 H   0  0  0  0  0  0  0  0  0  0  0  0
   12.6590   -2.2374    0.0000 H   0  0  0  0  0  0  0  0  0  0  0  0
   15.6749   -0.6174    0.0000 H   0  0  0  0  0  0  0  0  0  0  0  0
    8.6580    1.6926    0.0000 H   0  0  0  0  0  0  0  0  0  0  0  0
   11.4639    1.6926    0.0000 H   0  0  0  0  0  0  0  0  0  0  0  0
   15.3713    0.9452    0.0000 H   0  0  0  0  0  0  0  0  0  0  0  0
   14.9745    1.7272    0.0000 H   0  0  0  0  0  0  0  0  0  0  0  0
   14.1926    1.3305    0.0000 H   0  0  0  0  0  0  0  0  0  0  0  0
  1 11  1  0  0  0  0
  1 19  1  0  0  0  0
  2 12  1  0  0  0  0
  2 13  1  0  0  0  0
  2 37  1  0  0  0  0
  3  8  1  0  0  0  0
  3 39  1  0  0  0  0
  3 40  1  0  0  0  0
  4  5  1  0  0  0  0
  4 24  1  0  0  0  0
  4 48  1  0  0  0  0
  5 22  2  0  0  0  0
  6 28  1  0  0  0  0
  6 29  2  0  0  0  0
  7  8  1  0  0  0  0
  7  9  1  0  0  0  0
  7 31  1  0  0  0  0
  7 32  1  0  0  0  0
  8 11  1  0  0  0  0
  8 33  1  0  0  0  0
  9 10  1  0  0  0  0
  9 13  2  0  0  0  0
 10 12  1  0  0  0  0
 10 14  2  0  0  0  0
 11 34  1  0  0  0  0
 11 35  1  0  0  0  0
 12 15  2  0  0  0  0
 13 36  1  0  0  0  0
 14 18  1  0  0  0  0
 14 38  1  0  0  0  0
 15 20  1  0  0  0  0
 15 41  1  0  0  0  0
 16 22  1  0  0  0  0
 16 23  1  0  0  0  0
 16 24  2  0  0  0  0
 17 21  1  0  0  0  0
 17 23  2  0  0  0  0
 17 26  1  0  0  0  0
 18 20  2  0  0  0  0
 18 42  1  0  0  0  0
 19 25  1  0  0  0  0
 19 28  2  0  0  0  0
 20 43  1  0  0  0  0
 21 25  2  0  0  0  0
 21 29  1  0  0  0  0
 22 27  1  0  0  0  0
 23 44  1  0  0  0  0
 24 30  1  0  0  0  0
 25 45  1  0  0  0  0
 26 27  2  0  0  0  0
 26 46  1  0  0  0  0
 27 47  1  0  0  0  0
 28 49  1  0  0  0  0
 29 50  1  0  0  0  0
 30 51  1  0  0  0  0
 30 52  1  0  0  0  0
 30 53  1  0  0  0  0
M  END
> <PUBCHEM_COMPOUND_CID>
20744821

> <PUBCHEM_COMPOUND_CANONICALIZED>
1

> <PUBCHEM_CACTVS_COMPLEXITY>
562

> <PUBCHEM_CACTVS_HBOND_ACCEPTOR>
4

> <PUBCHEM_CACTVS_HBOND_DONOR>
3

> <PUBCHEM_CACTVS_ROTATABLE_BOND>
6

> <PUBCHEM_CACTVS_SUBSKEYS>
AAADceB7oAAAAAAAAAAAAAAAAAAAAWLAAAA8YIAAAAAAAFgB/gAAHgAYAAAADCzhngY+xvLrlACiAzRnRASSjCAxYiAY+aA/bJgOJuLE8duHvCjk2BHY6Aew0PIOiAACAAACAAAQAAQAAAQAAAAAAAAAAA==

> <PUBCHEM_IUPAC_OPENEYE_NAME>
1-(1H-indol-3-yl)-3-[[5-(3-methyl-2H-indazol-5-yl)-3-pyridyl]oxy]propan-2-amine

> <PUBCHEM_IUPAC_CAS_NAME>
1-(1H-indol-3-yl)-3-[[5-(3-methyl-2H-indazol-5-yl)-3-pyridinyl]oxy]-2-propanamine

> <PUBCHEM_IUPAC_NAME_MARKUP>
1-(1<I>H</I>-indol-3-yl)-3-[5-(3-methyl-2<I>H</I>-indazol-5-yl)pyridin-3-yl]oxypropan-2-amine

> <PUBCHEM_IUPAC_NAME>
1-(1H-indol-3-yl)-3-[5-(3-methyl-2H-indazol-5-yl)pyridin-3-yl]oxypropan-2-amine

> <PUBCHEM_IUPAC_SYSTEMATIC_NAME>
1-(1H-indol-3-yl)-3-[5-(3-methyl-2H-indazol-5-yl)pyridin-3-yl]oxy-propan-2-amine

> <PUBCHEM_IUPAC_TRADITIONAL_NAME>
[1-(1H-indol-3-ylmethyl)-2-[[5-(3-methyl-2H-indazol-5-yl)-3-pyridyl]oxy]ethyl]amine

> <PUBCHEM_IUPAC_INCHI>
InChI=1S/C24H23N5O/c1-15-22-10-16(6-7-24(22)29-28-15)17-9-20(13-26-11-17)30-14-19(25)8-18-12-27-23-5-3-2-4-21(18)23/h2-7,9-13,19,27H,8,14,25H2,1H3,(H,28,29)

> <PUBCHEM_IUPAC_INCHIKEY>
YWTBGJGMTBHQTM-UHFFFAOYSA-N

> <PUBCHEM_XLOGP3_AA>
3.7

> <PUBCHEM_EXACT_MASS>
397.19026037

> <PUBCHEM_MOLECULAR_FORMULA>
C24H23N5O

> <PUBCHEM_MOLECULAR_WEIGHT>
397.5

> <PUBCHEM_SMILES>
CC1=C2C=C(C=CC2=NN1)C3=CC(=CN=C3)OCC(CC4=CNC5=CC=CC=C54)N

> <PUBCHEM_OPENEYE_CAN_SMILES>
CC1=C2C=C(C=CC2=NN1)C3=CC(=CN=C3)OCC(CC4=CNC5=CC=CC=C54)N

> <PUBCHEM_OPENEYE_ISO_SMILES>
CC1=C2C=C(C=CC2=NN1)C3=CC(=CN=C3)OCC(CC4=CNC5=CC=CC=C54)N

> <PUBCHEM_CACTVS_TPSA>
92.6

> <PUBCHEM_MONOISOTOPIC_WEIGHT>
397.19026037

> <PUBCHEM_TOTAL_CHARGE>
0

> <PUBCHEM_HEAVY_ATOM_COUNT>
30

> <PUBCHEM_ATOM_DEF_STEREO_COUNT>
0

> <PUBCHEM_ATOM_UDEF_STEREO_COUNT>
1

> <PUBCHEM_BOND_DEF_STEREO_COUNT>
0

> <PUBCHEM_BOND_UDEF_STEREO_COUNT>
0

> <PUBCHEM_ISOTOPIC_ATOM_COUNT>
0

> <PUBCHEM_COMPONENT_COUNT>
1

> <PUBCHEM_CACTVS_TAUTO_COUNT>
-1

> <PUBCHEM_COORDINATE_TYPE>
1
5
255

> <PUBCHEM_BONDANNOTATIONS>
10  12  8
10  14  8
12  15  8
14  18  8
15  20  8
16  22  8
16  23  8
16  24  8
17  23  8
17  26  8
18  20  8
19  25  8
19  28  8
2  12  8
2  13  8
21  25  8
21  29  8
22  27  8
26  27  8
8  3  3
4  24  8
4  5  8
5  22  8
6  28  8
6  29  8
9  10  8
9  13  8

$$$$
