136027090
  -OEChem-03202503052D

 44 46  0     0  0  0  0  0  0999 V2000
    8.5043    3.5146    0.0000 O   0  0  0  0  0  0  0  0  0  0  0  0
    6.8671    1.0667    0.0000 O   0  0  0  0  0  0  0  0  0  0  0  0
    2.9320    1.8944    0.0000 O   0  0  0  0  0  0  0  0  0  0  0  0
    2.5369   -1.4333    0.0000 O   0  0  0  0  0  0  0  0  0  0  0  0
    4.2690   -4.4333    0.0000 O   0  0  0  0  0  0  0  0  0  0  0  0
    5.1920    3.1545    0.0000 N   0  0  0  0  0  0  0  0  0  0  0  0
    6.5010    4.1056    0.0000 N   0  0  0  0  0  0  0  0  0  0  0  0
    5.5010    4.1056    0.0000 N   0  0  0  0  0  0  0  0  0  0  0  0
    5.1350    1.0667    0.0000 N   0  0  0  0  0  0  0  0  0  0  0  0
    5.1350    0.0667    0.0000 N   0  0  0  0  0  0  0  0  0  0  0  0
    3.9320    1.8944    0.0000 N   0  0  0  0  0  0  0  0  0  0  0  0
    2.6229    2.8455    0.0000 N   0  0  0  0  0  0  0  0  0  0  0  0
    3.4320    4.4333    0.0000 N   0  0  0  0  0  0  0  0  0  0  0  0
    6.0010    2.5667    0.0000 C   0  0  0  0  0  0  0  0  0  0  0  0
    6.8100    3.1545    0.0000 C   0  0  0  0  0  0  0  0  0  0  0  0
    7.7611    2.8455    0.0000 C   0  0  0  0  0  0  0  0  0  0  0  0
    6.0010    1.5667    0.0000 C   0  0  0  0  0  0  0  0  0  0  0  0
    4.2410    2.8455    0.0000 C   0  0  0  0  0  0  0  0  0  0  0  0
    4.2690   -1.4333    0.0000 C   0  0  0  0  0  0  0  0  0  0  0  0
    4.2690   -0.4333    0.0000 C   0  0  0  0  0  0  0  0  0  0  0  0
    3.4320    3.4333    0.0000 C   0  0  0  0  0  0  0  0  0  0  0  0
    3.4030   -1.9333    0.0000 C   0  0  0  0  0  0  0  0  0  0  0  0
    5.1350   -1.9333    0.0000 C   0  0  0  0  0  0  0  0  0  0  0  0
    3.4030    0.0667    0.0000 C   0  0  0  0  0  0  0  0  0  0  0  0
    3.4030   -2.9333    0.0000 C   0  0  0  0  0  0  0  0  0  0  0  0
    5.1350   -2.9333    0.0000 C   0  0  0  0  0  0  0  0  0  0  0  0
    4.2690   -3.4333    0.0000 C   0  0  0  0  0  0  0  0  0  0  0  0
    9.4553    3.2056    0.0000 C   0  0  0  0  0  0  0  0  0  0  0  0
    7.4700    2.2981    0.0000 H   0  0  0  0  0  0  0  0  0  0  0  0
    8.2497    2.4638    0.0000 H   0  0  0  0  0  0  0  0  0  0  0  0
    4.5981    1.3767    0.0000 H   0  0  0  0  0  0  0  0  0  0  0  0
    5.6720   -1.6233    0.0000 H   0  0  0  0  0  0  0  0  0  0  0  0
    3.7130    0.6037    0.0000 H   0  0  0  0  0  0  0  0  0  0  0  0
    2.8660    0.3767    0.0000 H   0  0  0  0  0  0  0  0  0  0  0  0
    3.0930   -0.4702    0.0000 H   0  0  0  0  0  0  0  0  0  0  0  0
    2.8660   -3.2433    0.0000 H   0  0  0  0  0  0  0  0  0  0  0  0
    5.6720   -3.2433    0.0000 H   0  0  0  0  0  0  0  0  0  0  0  0
    9.2637    2.6160    0.0000 H   0  0  0  0  0  0  0  0  0  0  0  0
   10.0450    3.0140    0.0000 H   0  0  0  0  0  0  0  0  0  0  0  0
    9.6469    3.7953    0.0000 H   0  0  0  0  0  0  0  0  0  0  0  0
    2.8950    4.7433    0.0000 H   0  0  0  0  0  0  0  0  0  0  0  0
    3.9689    4.7433    0.0000 H   0  0  0  0  0  0  0  0  0  0  0  0
    2.0000   -1.7433    0.0000 H   0  0  0  0  0  0  0  0  0  0  0  0
    4.8059   -4.7433    0.0000 H   0  0  0  0  0  0  0  0  0  0  0  0
  1 16  1  0  0  0  0
  1 28  1  0  0  0  0
  2 17  2  0  0  0  0
  3 11  1  0  0  0  0
  3 12  1  0  0  0  0
  4 22  1  0  0  0  0
  4 43  1  0  0  0  0
  5 27  1  0  0  0  0
  5 44  1  0  0  0  0
  6  8  1  0  0  0  0
  6 14  1  0  0  0  0
  6 18  1  0  0  0  0
  7  8  2  0  0  0  0
  7 15  1  0  0  0  0
  9 10  1  0  0  0  0
  9 17  1  0  0  0  0
  9 31  1  0  0  0  0
 10 20  2  3  0  0  0
 11 18  2  0  0  0  0
 12 21  2  0  0  0  0
 13 21  1  0  0  0  0
 13 41  1  0  0  0  0
 13 42  1  0  0  0  0
 14 15  2  0  0  0  0
 14 17  1  0  0  0  0
 15 16  1  0  0  0  0
 16 29  1  0  0  0  0
 16 30  1  0  0  0  0
 18 21  1  0  0  0  0
 19 20  1  0  0  0  0
 19 22  2  0  0  0  0
 19 23  1  0  0  0  0
 20 24  1  0  0  0  0
 22 25  1  0  0  0  0
 23 26  2  0  0  0  0
 23 32  1  0  0  0  0
 24 33  1  0  0  0  0
 24 34  1  0  0  0  0
 24 35  1  0  0  0  0
 25 27  2  0  0  0  0
 25 36  1  0  0  0  0
 26 27  1  0  0  0  0
 26 37  1  0  0  0  0
 28 38  1  0  0  0  0
 28 39  1  0  0  0  0
 28 40  1  0  0  0  0
M  END
> <PUBCHEM_COMPOUND_CID>
136027090

> <PUBCHEM_COMPOUND_CANONICALIZED>
1

> <PUBCHEM_CACTVS_COMPLEXITY>
581

> <PUBCHEM_CACTVS_HBOND_ACCEPTOR>
11

> <PUBCHEM_CACTVS_HBOND_DONOR>
4

> <PUBCHEM_CACTVS_ROTATABLE_BOND>
6

> <PUBCHEM_CACTVS_SUBSKEYS>
AAADceBz+AAAAAAAAAAAAAAAAAAAAWLAAAAwAAAAAAAAAAAB8AAAHgAcCAAADAyhngIztpJ6BgCrAydydgSSBCQnMAA/mAG2XNqKZ/rC+TqVcYBnyJfIuWei4KQOIAAACAAIAABAAAAQABAAAAAAAAAAAA==

> <PUBCHEM_IUPAC_OPENEYE_NAME>
3-(4-amino-1,2,5-oxadiazol-3-yl)-N-[1-(2,4-dihydroxyphenyl)ethylideneamino]-5-(methoxymethyl)triazole-4-carboxamide

> <PUBCHEM_IUPAC_CAS_NAME>
3-(4-amino-1,2,5-oxadiazol-3-yl)-N-[1-(2,4-dihydroxyphenyl)ethylideneamino]-5-(methoxymethyl)-4-triazolecarboxamide

> <PUBCHEM_IUPAC_NAME_MARKUP>
3-(4-amino-1,2,5-oxadiazol-3-yl)-<I>N</I>-[1-(2,4-dihydroxyphenyl)ethylideneamino]-5-(methoxymethyl)triazole-4-carboxamide

> <PUBCHEM_IUPAC_NAME>
3-(4-amino-1,2,5-oxadiazol-3-yl)-N-[1-(2,4-dihydroxyphenyl)ethylideneamino]-5-(methoxymethyl)triazole-4-carboxamide

> <PUBCHEM_IUPAC_SYSTEMATIC_NAME>
3-(4-azanyl-1,2,5-oxadiazol-3-yl)-N-[1-[2,4-bis(oxidanyl)phenyl]ethylideneamino]-5-(methoxymethyl)-1,2,3-triazole-4-carboxamide

> <PUBCHEM_IUPAC_TRADITIONAL_NAME>
3-(4-aminofurazan-3-yl)-N-[1-(2,4-dihydroxyphenyl)ethylideneamino]-5-(methoxymethyl)triazole-4-carboxamide

> <PUBCHEM_IUPAC_INCHI>
InChI=1S/C15H16N8O5/c1-7(9-4-3-8(24)5-11(9)25)17-19-15(26)12-10(6-27-2)18-22-23(12)14-13(16)20-28-21-14/h3-5,24-25H,6H2,1-2H3,(H2,16,20)(H,19,26)

> <PUBCHEM_IUPAC_INCHIKEY>
FSYMYDRMUOJVKB-UHFFFAOYSA-N

> <PUBCHEM_XLOGP3_AA>
-0.4

> <PUBCHEM_EXACT_MASS>
388.12436564

> <PUBCHEM_MOLECULAR_FORMULA>
C15H16N8O5

> <PUBCHEM_MOLECULAR_WEIGHT>
388.34

> <PUBCHEM_SMILES>
CC(=NNC(=O)C1=C(N=NN1C2=NON=C2N)COC)C3=C(C=C(C=C3)O)O

> <PUBCHEM_OPENEYE_CAN_SMILES>
CC(=NNC(=O)C1=C(N=NN1C2=NON=C2N)COC)C3=C(C=C(C=C3)O)O

> <PUBCHEM_OPENEYE_ISO_SMILES>
CC(=NNC(=O)C1=C(N=NN1C2=NON=C2N)COC)C3=C(C=C(C=C3)O)O

> <PUBCHEM_CACTVS_TPSA>
187

> <PUBCHEM_MONOISOTOPIC_WEIGHT>
388.12436564

> <PUBCHEM_TOTAL_CHARGE>
0

> <PUBCHEM_HEAVY_ATOM_COUNT>
28

> <PUBCHEM_ATOM_DEF_STEREO_COUNT>
0

> <PUBCHEM_ATOM_UDEF_STEREO_COUNT>
0

> <PUBCHEM_BOND_DEF_STEREO_COUNT>
0

> <PUBCHEM_BOND_UDEF_STEREO_COUNT>
1

> <PUBCHEM_ISOTOPIC_ATOM_COUNT>
0

> <PUBCHEM_COMPONENT_COUNT>
1

> <PUBCHEM_CACTVS_TAUTO_COUNT>
-1

> <PUBCHEM_COORDINATE_TYPE>
1
5
255

> <PUBCHEM_BONDANNOTATIONS>
10  20  1
11  18  8
12  21  8
14  15  8
18  21  8
19  22  8
19  23  8
22  25  8
23  26  8
25  27  8
26  27  8
3  11  8
3  12  8
6  14  8
6  8  8
7  15  8
7  8  8

$$$$
