49830428
  -OEChem-03202502232D

 41 44  0     0  0  0  0  0  0999 V2000
    2.0000    0.2500    0.0000 F   0  0  0  0  0  0  0  0  0  0  0  0
    6.3301   -1.2500    0.0000 O   0  0  0  0  0  0  0  0  0  0  0  0
   13.3385   -0.0547    0.0000 N   0  0  0  0  0  0  0  0  0  0  0  0
    7.1962    0.2500    0.0000 N   0  0  0  0  0  0  0  0  0  0  0  0
   13.9221    0.7500    0.0000 N   0  0  0  0  0  0  0  0  0  0  0  0
    5.4641    0.2500    0.0000 N   0  0  0  0  0  0  0  0  0  0  0  0
   10.6603    0.2500    0.0000 C   0  0  0  0  0  0  0  0  0  0  0  0
    9.7942   -0.2500    0.0000 C   0  0  0  0  0  0  0  0  0  0  0  0
   12.3923    0.2500    0.0000 C   0  0  0  0  0  0  0  0  0  0  0  0
   12.3923    1.2500    0.0000 C   0  0  0  0  0  0  0  0  0  0  0  0
   11.5263   -0.2500    0.0000 C   0  0  0  0  0  0  0  0  0  0  0  0
   10.6603    1.2500    0.0000 C   0  0  0  0  0  0  0  0  0  0  0  0
    8.9282    0.2500    0.0000 C   0  0  0  0  0  0  0  0  0  0  0  0
   11.5263    1.7500    0.0000 C   0  0  0  0  0  0  0  0  0  0  0  0
    8.0622   -0.2500    0.0000 C   0  0  0  0  0  0  0  0  0  0  0  0
    9.7942   -1.2500    0.0000 C   0  0  0  0  0  0  0  0  0  0  0  0
   13.3385    1.5547    0.0000 C   0  0  0  0  0  0  0  0  0  0  0  0
    8.0622   -1.2500    0.0000 C   0  0  0  0  0  0  0  0  0  0  0  0
    8.9282   -1.7500    0.0000 C   0  0  0  0  0  0  0  0  0  0  0  0
    6.3301   -0.2500    0.0000 C   0  0  0  0  0  0  0  0  0  0  0  0
    4.5981   -0.2500    0.0000 C   0  0  0  0  0  0  0  0  0  0  0  0
    3.7320    0.2500    0.0000 C   0  0  0  0  0  0  0  0  0  0  0  0
    4.5981   -1.2500    0.0000 C   0  0  0  0  0  0  0  0  0  0  0  0
    2.8660   -0.2500    0.0000 C   0  0  0  0  0  0  0  0  0  0  0  0
    3.7320   -1.7500    0.0000 C   0  0  0  0  0  0  0  0  0  0  0  0
    2.8660   -1.2500    0.0000 C   0  0  0  0  0  0  0  0  0  0  0  0
   11.5263   -0.8700    0.0000 H   0  0  0  0  0  0  0  0  0  0  0  0
   10.1233    1.5600    0.0000 H   0  0  0  0  0  0  0  0  0  0  0  0
    8.9282    0.8700    0.0000 H   0  0  0  0  0  0  0  0  0  0  0  0
   11.5263    2.3700    0.0000 H   0  0  0  0  0  0  0  0  0  0  0  0
   10.3312   -1.5600    0.0000 H   0  0  0  0  0  0  0  0  0  0  0  0
   13.5311   -0.6441    0.0000 H   0  0  0  0  0  0  0  0  0  0  0  0
   13.5311    2.1440    0.0000 H   0  0  0  0  0  0  0  0  0  0  0  0
    7.5252   -1.5600    0.0000 H   0  0  0  0  0  0  0  0  0  0  0  0
    8.9282   -2.3700    0.0000 H   0  0  0  0  0  0  0  0  0  0  0  0
    7.1962    0.8700    0.0000 H   0  0  0  0  0  0  0  0  0  0  0  0
    5.4641    0.8700    0.0000 H   0  0  0  0  0  0  0  0  0  0  0  0
    3.7320    0.8700    0.0000 H   0  0  0  0  0  0  0  0  0  0  0  0
    5.1350   -1.5600    0.0000 H   0  0  0  0  0  0  0  0  0  0  0  0
    3.7320   -2.3700    0.0000 H   0  0  0  0  0  0  0  0  0  0  0  0
    2.3291   -1.5600    0.0000 H   0  0  0  0  0  0  0  0  0  0  0  0
  1 24  1  0  0  0  0
  2 20  2  0  0  0  0
  3  5  1  0  0  0  0
  3  9  1  0  0  0  0
  3 32  1  0  0  0  0
  4 15  1  0  0  0  0
  4 20  1  0  0  0  0
  4 36  1  0  0  0  0
  5 17  2  0  0  0  0
  6 20  1  0  0  0  0
  6 21  1  0  0  0  0
  6 37  1  0  0  0  0
  7  8  1  0  0  0  0
  7 11  2  0  0  0  0
  7 12  1  0  0  0  0
  8 13  2  0  0  0  0
  8 16  1  0  0  0  0
  9 10  2  0  0  0  0
  9 11  1  0  0  0  0
 10 14  1  0  0  0  0
 10 17  1  0  0  0  0
 11 27  1  0  0  0  0
 12 14  2  0  0  0  0
 12 28  1  0  0  0  0
 13 15  1  0  0  0  0
 13 29  1  0  0  0  0
 14 30  1  0  0  0  0
 15 18  2  0  0  0  0
 16 19  2  0  0  0  0
 16 31  1  0  0  0  0
 17 33  1  0  0  0  0
 18 19  1  0  0  0  0
 18 34  1  0  0  0  0
 19 35  1  0  0  0  0
 21 22  2  0  0  0  0
 21 23  1  0  0  0  0
 22 24  1  0  0  0  0
 22 38  1  0  0  0  0
 23 25  2  0  0  0  0
 23 39  1  0  0  0  0
 24 26  2  0  0  0  0
 25 26  1  0  0  0  0
 25 40  1  0  0  0  0
 26 41  1  0  0  0  0
M  END
> <PUBCHEM_COMPOUND_CID>
49830428

> <PUBCHEM_COMPOUND_CANONICALIZED>
1

> <PUBCHEM_CACTVS_COMPLEXITY>
490

> <PUBCHEM_CACTVS_HBOND_ACCEPTOR>
3

> <PUBCHEM_CACTVS_HBOND_DONOR>
3

> <PUBCHEM_CACTVS_ROTATABLE_BOND>
3

> <PUBCHEM_CACTVS_SUBSKEYS>
AAADccB7oQAAAAAAAAAAAAAAAAAAAWAAAAAwYMAAAAAAAFgB9AAAHwAYAAAADAjBHgw9wPLjAACqAzRnUACSBAAhggAYuSAwZJiIIKLA0dGEpAhonAJIyCcQgMAOwAAAQAACAACAAACAAAQAAAAAAAAAAA==

> <PUBCHEM_IUPAC_OPENEYE_NAME>
1-(3-fluorophenyl)-3-[3-(1H-indazol-6-yl)phenyl]urea

> <PUBCHEM_IUPAC_CAS_NAME>
1-(3-fluorophenyl)-3-[3-(1H-indazol-6-yl)phenyl]urea

> <PUBCHEM_IUPAC_NAME_MARKUP>
1-(3-fluorophenyl)-3-[3-(1<I>H</I>-indazol-6-yl)phenyl]urea

> <PUBCHEM_IUPAC_NAME>
1-(3-fluorophenyl)-3-[3-(1H-indazol-6-yl)phenyl]urea

> <PUBCHEM_IUPAC_SYSTEMATIC_NAME>
1-(3-fluorophenyl)-3-[3-(1H-indazol-6-yl)phenyl]urea

> <PUBCHEM_IUPAC_TRADITIONAL_NAME>
1-(3-fluorophenyl)-3-[3-(1H-indazol-6-yl)phenyl]urea

> <PUBCHEM_IUPAC_INCHI>
InChI=1S/C20H15FN4O/c21-16-4-2-6-18(11-16)24-20(26)23-17-5-1-3-13(9-17)14-7-8-15-12-22-25-19(15)10-14/h1-12H,(H,22,25)(H2,23,24,26)

> <PUBCHEM_IUPAC_INCHIKEY>
WONUEZVTDVQBDC-UHFFFAOYSA-N

> <PUBCHEM_XLOGP3_AA>
3.8

> <PUBCHEM_EXACT_MASS>
346.12298928

> <PUBCHEM_MOLECULAR_FORMULA>
C20H15FN4O

> <PUBCHEM_MOLECULAR_WEIGHT>
346.4

> <PUBCHEM_SMILES>
C1=CC(=CC(=C1)NC(=O)NC2=CC(=CC=C2)F)C3=CC4=C(C=C3)C=NN4

> <PUBCHEM_OPENEYE_CAN_SMILES>
C1=CC(=CC(=C1)NC(=O)NC2=CC(=CC=C2)F)C3=CC4=C(C=C3)C=NN4

> <PUBCHEM_OPENEYE_ISO_SMILES>
C1=CC(=CC(=C1)NC(=O)NC2=CC(=CC=C2)F)C3=CC4=C(C=C3)C=NN4

> <PUBCHEM_CACTVS_TPSA>
69.8

> <PUBCHEM_MONOISOTOPIC_WEIGHT>
346.12298928

> <PUBCHEM_TOTAL_CHARGE>
0

> <PUBCHEM_HEAVY_ATOM_COUNT>
26

> <PUBCHEM_ATOM_DEF_STEREO_COUNT>
0

> <PUBCHEM_ATOM_UDEF_STEREO_COUNT>
0

> <PUBCHEM_BOND_DEF_STEREO_COUNT>
0

> <PUBCHEM_BOND_UDEF_STEREO_COUNT>
0

> <PUBCHEM_ISOTOPIC_ATOM_COUNT>
0

> <PUBCHEM_COMPONENT_COUNT>
1

> <PUBCHEM_CACTVS_TAUTO_COUNT>
-1

> <PUBCHEM_COORDINATE_TYPE>
1
5
255

> <PUBCHEM_BONDANNOTATIONS>
10  14  8
10  17  8
12  14  8
13  15  8
15  18  8
16  19  8
18  19  8
21  22  8
21  23  8
22  24  8
23  25  8
24  26  8
25  26  8
3  5  8
3  9  8
5  17  8
7  11  8
7  12  8
8  13  8
8  16  8
9  10  8
9  11  8

$$$$
