49830839
  -OEChem-03202502112D

 41 43  0     1  0  0  0  0  0999 V2000
    6.3301    4.0000    0.0000 Cl  0  0  0  0  0  0  0  0  0  0  0  0
    6.3301    0.0000    0.0000 O   0  0  0  0  0  0  0  0  0  0  0  0
    8.0622   -2.0000    0.0000 O   0  0  0  0  0  0  0  0  0  0  0  0
    6.3301   -3.0000    0.0000 O   0  0  0  0  0  0  0  0  0  0  0  0
    4.5981   -2.0000    0.0000 O   0  0  0  0  0  0  0  0  0  0  0  0
    3.7320    2.5000    0.0000 O   0  0  0  0  0  0  0  0  0  0  0  0
    4.5981    1.0000    0.0000 N   0  0  0  0  0  0  0  0  0  0  0  0
    3.7320   -0.5000    0.0000 N   0  0  0  0  0  0  0  0  0  0  0  0
    2.8660    1.0000    0.0000 N   0  0  0  0  0  0  0  0  0  0  0  0
    2.0000   -1.5000    0.0000 N   0  0  0  0  0  0  0  0  0  0  0  0
    2.8660   -4.0000    0.0000 N   0  0  0  0  0  0  0  0  0  0  0  0
    7.1962   -1.5000    0.0000 C   0  0  3  0  0  0  0  0  0  0  0  0
    6.3301   -2.0000    0.0000 C   0  0  3  0  0  0  0  0  0  0  0  0
    7.1962   -0.5000    0.0000 C   0  0  0  0  0  0  0  0  0  0  0  0
    5.4641   -1.5000    0.0000 C   0  0  0  0  0  0  0  0  0  0  0  0
    6.3301    1.0000    0.0000 C   0  0  0  0  0  0  0  0  0  0  0  0
    5.4641    1.5000    0.0000 C   0  0  0  0  0  0  0  0  0  0  0  0
    7.1962    1.5000    0.0000 C   0  0  0  0  0  0  0  0  0  0  0  0
    3.7320   -1.5000    0.0000 C   0  0  0  0  0  0  0  0  0  0  0  0
    5.4641    2.5000    0.0000 C   0  0  0  0  0  0  0  0  0  0  0  0
    7.1962    2.5000    0.0000 C   0  0  0  0  0  0  0  0  0  0  0  0
    6.3301    3.0000    0.0000 C   0  0  0  0  0  0  0  0  0  0  0  0
    2.8660    0.0000    0.0000 C   0  0  0  0  0  0  0  0  0  0  0  0
    3.7320    1.5000    0.0000 C   0  0  0  0  0  0  0  0  0  0  0  0
    2.8660   -2.0000    0.0000 C   0  0  0  0  0  0  0  0  0  0  0  0
    2.0000   -0.5000    0.0000 C   0  0  0  0  0  0  0  0  0  0  0  0
    2.8660   -3.0000    0.0000 C   0  0  0  0  0  0  0  0  0  0  0  0
    7.7331   -1.1900    0.0000 H   0  0  0  0  0  0  0  0  0  0  0  0
    6.8671   -2.3100    0.0000 H   0  0  0  0  0  0  0  0  0  0  0  0
    7.8067   -0.6077    0.0000 H   0  0  0  0  0  0  0  0  0  0  0  0
    7.4082    0.0826    0.0000 H   0  0  0  0  0  0  0  0  0  0  0  0
    5.8626   -1.0250    0.0000 H   0  0  0  0  0  0  0  0  0  0  0  0
    5.0656   -1.0250    0.0000 H   0  0  0  0  0  0  0  0  0  0  0  0
    8.5991   -1.6900    0.0000 H   0  0  0  0  0  0  0  0  0  0  0  0
    6.8671   -3.3100    0.0000 H   0  0  0  0  0  0  0  0  0  0  0  0
    7.7331    1.1900    0.0000 H   0  0  0  0  0  0  0  0  0  0  0  0
    4.9272    2.8100    0.0000 H   0  0  0  0  0  0  0  0  0  0  0  0
    4.5981    0.3800    0.0000 H   0  0  0  0  0  0  0  0  0  0  0  0
    7.7331    2.8100    0.0000 H   0  0  0  0  0  0  0  0  0  0  0  0
    2.3291    1.3100    0.0000 H   0  0  0  0  0  0  0  0  0  0  0  0
    1.4631   -0.1900    0.0000 H   0  0  0  0  0  0  0  0  0  0  0  0
  1 22  1  0  0  0  0
  2 14  1  0  0  0  0
  2 16  1  0  0  0  0
  3 12  1  0  0  0  0
  3 34  1  0  0  0  0
  4 13  1  0  0  0  0
  4 35  1  0  0  0  0
  5 15  1  0  0  0  0
  5 19  1  0  0  0  0
  6 24  2  0  0  0  0
  7 17  1  0  0  0  0
  7 24  1  0  0  0  0
  7 38  1  0  0  0  0
  8 19  2  0  0  0  0
  8 23  1  0  0  0  0
  9 23  1  0  0  0  0
  9 24  1  0  0  0  0
  9 40  1  0  0  0  0
 10 25  2  0  0  0  0
 10 26  1  0  0  0  0
 11 27  3  0  0  0  0
 12 13  1  0  0  0  0
 12 14  1  0  0  0  0
 12 28  1  0  0  0  0
 13 15  1  0  0  0  0
 13 29  1  0  0  0  0
 14 30  1  0  0  0  0
 14 31  1  0  0  0  0
 15 32  1  0  0  0  0
 15 33  1  0  0  0  0
 16 17  2  0  0  0  0
 16 18  1  0  0  0  0
 17 20  1  0  0  0  0
 18 21  2  0  0  0  0
 18 36  1  0  0  0  0
 19 25  1  0  0  0  0
 20 22  2  0  0  0  0
 20 37  1  0  0  0  0
 21 22  1  0  0  0  0
 21 39  1  0  0  0  0
 23 26  2  0  0  0  0
 25 27  1  0  0  0  0
 26 41  1  0  0  0  0
M  END
> <PUBCHEM_COMPOUND_CID>
49830839

> <PUBCHEM_COMPOUND_CANONICALIZED>
1

> <PUBCHEM_CACTVS_COMPLEXITY>
575

> <PUBCHEM_CACTVS_HBOND_ACCEPTOR>
8

> <PUBCHEM_CACTVS_HBOND_DONOR>
4

> <PUBCHEM_CACTVS_ROTATABLE_BOND>
0

> <PUBCHEM_CACTVS_SUBSKEYS>
AAADccB7uAAEAAAAAAAAAAAAAAAAAAAAAAA8QAAAAAAAAAABwAAAHgIQCAAACB7hliY99pLIFgC4BTZndASiiC0xdyAJ2AA/foiP9mLFs5ufeCjt1RPb6CfQQAAAACAAAAIAEAAAQAAABAAgAAAAAAAAAA==

> <PUBCHEM_IUPAC_OPENEYE_NAME>
7-chloro-13,14-dihydroxy-3-oxo-11,16-dioxa-2,4,19,21-tetrazatricyclo[15.3.1.05,10]henicosa-1(20),5(10),6,8,17(21),18-hexaene-18-carbonitrile

> <PUBCHEM_IUPAC_CAS_NAME>
7-chloro-13,14-dihydroxy-3-oxo-11,16-dioxa-2,4,19,21-tetrazatricyclo[15.3.1.05,10]heneicosa-1(20),5(10),6,8,17(21),18-hexaene-18-carbonitrile

> <PUBCHEM_IUPAC_NAME_MARKUP>
7-chloro-13,14-dihydroxy-3-oxo-11,16-dioxa-2,4,19,21-tetrazatricyclo[15.3.1.0<SUP>5,10</SUP>]henicosa-1(20),5(10),6,8,17(21),18-hexaene-18-carbonitrile

> <PUBCHEM_IUPAC_NAME>
7-chloro-13,14-dihydroxy-3-oxo-11,16-dioxa-2,4,19,21-tetrazatricyclo[15.3.1.05,10]henicosa-1(20),5(10),6,8,17(21),18-hexaene-18-carbonitrile

> <PUBCHEM_IUPAC_SYSTEMATIC_NAME>
7-chloranyl-13,14-bis(oxidanyl)-3-oxidanylidene-11,16-dioxa-2,4,19,21-tetrazatricyclo[15.3.1.05,10]henicosa-1(20),5(10),6,8,17(21),18-hexaene-18-carbonitrile

> <PUBCHEM_IUPAC_TRADITIONAL_NAME>
7-chloro-13,14-dihydroxy-3-keto-11,16-dioxa-2,4,19,21-tetrazatricyclo[15.3.1.05,10]heneicosa-1(20),5(10),6,8,17(21),18-hexaene-18-carbonitrile

> <PUBCHEM_IUPAC_INCHI>
InChI=1S/C16H14ClN5O5/c17-8-1-2-13-9(3-8)20-16(25)22-14-5-19-10(4-18)15(21-14)27-7-12(24)11(23)6-26-13/h1-3,5,11-12,23-24H,6-7H2,(H2,20,21,22,25)

> <PUBCHEM_IUPAC_INCHIKEY>
RIDCOBPCGROHQY-UHFFFAOYSA-N

> <PUBCHEM_XLOGP3_AA>
0.2

> <PUBCHEM_EXACT_MASS>
391.0683463

> <PUBCHEM_MOLECULAR_FORMULA>
C16H14ClN5O5

> <PUBCHEM_MOLECULAR_WEIGHT>
391.76

> <PUBCHEM_SMILES>
C1C(C(COC2=NC(=CN=C2C#N)NC(=O)NC3=C(O1)C=CC(=C3)Cl)O)O

> <PUBCHEM_OPENEYE_CAN_SMILES>
C1C(C(COC2=NC(=CN=C2C#N)NC(=O)NC3=C(O1)C=CC(=C3)Cl)O)O

> <PUBCHEM_OPENEYE_ISO_SMILES>
C1C(C(COC2=NC(=CN=C2C#N)NC(=O)NC3=C(O1)C=CC(=C3)Cl)O)O

> <PUBCHEM_CACTVS_TPSA>
150

> <PUBCHEM_MONOISOTOPIC_WEIGHT>
391.0683463

> <PUBCHEM_TOTAL_CHARGE>
0

> <PUBCHEM_HEAVY_ATOM_COUNT>
27

> <PUBCHEM_ATOM_DEF_STEREO_COUNT>
0

> <PUBCHEM_ATOM_UDEF_STEREO_COUNT>
2

> <PUBCHEM_BOND_DEF_STEREO_COUNT>
0

> <PUBCHEM_BOND_UDEF_STEREO_COUNT>
0

> <PUBCHEM_ISOTOPIC_ATOM_COUNT>
0

> <PUBCHEM_COMPONENT_COUNT>
1

> <PUBCHEM_CACTVS_TAUTO_COUNT>
-1

> <PUBCHEM_COORDINATE_TYPE>
1
5
255

> <PUBCHEM_BONDANNOTATIONS>
10  25  8
10  26  8
16  17  8
16  18  8
17  20  8
18  21  8
19  25  8
20  22  8
21  22  8
23  26  8
12  3  3
13  4  3
8  19  8
8  23  8

$$$$
