617753
  -OEChem-03202502352D

 29 31  0     0  0  0  0  0  0999 V2000
    5.8550    1.5652    0.0000 O   0  0  0  0  0  0  0  0  0  0  0  0
    2.0000   -1.1900    0.0000 O   0  0  0  0  0  0  0  0  0  0  0  0
    6.1279   -0.1900    0.0000 N   0  0  0  0  0  0  0  0  0  0  0  0
    5.5443   -0.9947    0.0000 N   0  0  0  0  0  0  0  0  0  0  0  0
    3.7320   -1.1900    0.0000 N   0  0  0  0  0  0  0  0  0  0  0  0
    4.5981    0.3100    0.0000 C   0  0  0  0  0  0  0  0  0  0  0  0
    4.5981   -0.6900    0.0000 C   0  0  0  0  0  0  0  0  0  0  0  0
    5.5443    0.6147    0.0000 C   0  0  0  0  0  0  0  0  0  0  0  0
    3.7320    0.8100    0.0000 C   0  0  0  0  0  0  0  0  0  0  0  0
    7.1279   -0.1900    0.0000 C   0  0  0  0  0  0  0  0  0  0  0  0
    2.8660    0.3100    0.0000 C   0  0  0  0  0  0  0  0  0  0  0  0
    2.8660   -0.6900    0.0000 C   0  0  0  0  0  0  0  0  0  0  0  0
    3.7320    1.8100    0.0000 C   0  0  0  0  0  0  0  0  0  0  0  0
    7.6279   -1.0560    0.0000 C   0  0  0  0  0  0  0  0  0  0  0  0
    7.6279    0.6760    0.0000 C   0  0  0  0  0  0  0  0  0  0  0  0
    8.6279   -1.0560    0.0000 C   0  0  0  0  0  0  0  0  0  0  0  0
    8.6279    0.6760    0.0000 C   0  0  0  0  0  0  0  0  0  0  0  0
    9.1279   -0.1900    0.0000 C   0  0  0  0  0  0  0  0  0  0  0  0
    5.7369   -1.5840    0.0000 H   0  0  0  0  0  0  0  0  0  0  0  0
    3.7320   -1.8100    0.0000 H   0  0  0  0  0  0  0  0  0  0  0  0
    2.3291    0.6200    0.0000 H   0  0  0  0  0  0  0  0  0  0  0  0
    4.3520    1.8100    0.0000 H   0  0  0  0  0  0  0  0  0  0  0  0
    3.7320    2.4300    0.0000 H   0  0  0  0  0  0  0  0  0  0  0  0
    3.1120    1.8100    0.0000 H   0  0  0  0  0  0  0  0  0  0  0  0
    7.3179   -1.5930    0.0000 H   0  0  0  0  0  0  0  0  0  0  0  0
    7.3179    1.2130    0.0000 H   0  0  0  0  0  0  0  0  0  0  0  0
    8.9379   -1.5930    0.0000 H   0  0  0  0  0  0  0  0  0  0  0  0
    8.9379    1.2130    0.0000 H   0  0  0  0  0  0  0  0  0  0  0  0
    9.7479   -0.1900    0.0000 H   0  0  0  0  0  0  0  0  0  0  0  0
  1  8  2  0  0  0  0
  2 12  2  0  0  0  0
  3  4  1  0  0  0  0
  3  8  1  0  0  0  0
  3 10  1  0  0  0  0
  4  7  1  0  0  0  0
  4 19  1  0  0  0  0
  5  7  1  0  0  0  0
  5 12  1  0  0  0  0
  5 20  1  0  0  0  0
  6  7  2  0  0  0  0
  6  8  1  0  0  0  0
  6  9  1  0  0  0  0
  9 11  2  0  0  0  0
  9 13  1  0  0  0  0
 10 14  2  0  0  0  0
 10 15  1  0  0  0  0
 11 12  1  0  0  0  0
 11 21  1  0  0  0  0
 13 22  1  0  0  0  0
 13 23  1  0  0  0  0
 13 24  1  0  0  0  0
 14 16  1  0  0  0  0
 14 25  1  0  0  0  0
 15 17  2  0  0  0  0
 15 26  1  0  0  0  0
 16 18  2  0  0  0  0
 16 27  1  0  0  0  0
 17 18  1  0  0  0  0
 17 28  1  0  0  0  0
 18 29  1  0  0  0  0
M  END
> <PUBCHEM_COMPOUND_CID>
617753

> <PUBCHEM_COMPOUND_CANONICALIZED>
1

> <PUBCHEM_CACTVS_COMPLEXITY>
473

> <PUBCHEM_CACTVS_HBOND_ACCEPTOR>
3

> <PUBCHEM_CACTVS_HBOND_DONOR>
2

> <PUBCHEM_CACTVS_ROTATABLE_BOND>
1

> <PUBCHEM_CACTVS_SUBSKEYS>
AAADccBzMAAAAAAAAAAAAAAAAAAAAQAAAAAwQAAAAAAAAEABAAAAHgAYAAAADAiBkAAzwILiAACIAiVSUACCBAAhAgAeqAEAZMiIIDLAkZGEIAhwlQLIyUcQAAAAAAAAAAAAAAAAAAAAAAAAAAAAAAAAAA==

> <PUBCHEM_IUPAC_OPENEYE_NAME>
4-methyl-2-phenyl-1,7-dihydropyrazolo[3,4-b]pyridine-3,6-dione

> <PUBCHEM_IUPAC_CAS_NAME>
4-methyl-2-phenyl-1,7-dihydropyrazolo[3,4-b]pyridine-3,6-dione

> <PUBCHEM_IUPAC_NAME_MARKUP>
4-methyl-2-phenyl-1,7-dihydropyrazolo[3,4-b]pyridine-3,6-dione

> <PUBCHEM_IUPAC_NAME>
4-methyl-2-phenyl-1,7-dihydropyrazolo[3,4-b]pyridine-3,6-dione

> <PUBCHEM_IUPAC_SYSTEMATIC_NAME>
4-methyl-2-phenyl-1,7-dihydropyrazolo[3,4-b]pyridine-3,6-dione

> <PUBCHEM_IUPAC_TRADITIONAL_NAME>
4-methyl-2-phenyl-1,7-dihydropyrazolo[3,4-b]pyridine-3,6-quinone

> <PUBCHEM_IUPAC_INCHI>
InChI=1S/C13H11N3O2/c1-8-7-10(17)14-12-11(8)13(18)16(15-12)9-5-3-2-4-6-9/h2-7H,1H3,(H2,14,15,17)

> <PUBCHEM_IUPAC_INCHIKEY>
QKSMEUJDXLNQJE-UHFFFAOYSA-N

> <PUBCHEM_XLOGP3_AA>
1

> <PUBCHEM_EXACT_MASS>
241.085126602

> <PUBCHEM_MOLECULAR_FORMULA>
C13H11N3O2

> <PUBCHEM_MOLECULAR_WEIGHT>
241.24

> <PUBCHEM_SMILES>
CC1=CC(=O)NC2=C1C(=O)N(N2)C3=CC=CC=C3

> <PUBCHEM_OPENEYE_CAN_SMILES>
CC1=CC(=O)NC2=C1C(=O)N(N2)C3=CC=CC=C3

> <PUBCHEM_OPENEYE_ISO_SMILES>
CC1=CC(=O)NC2=C1C(=O)N(N2)C3=CC=CC=C3

> <PUBCHEM_CACTVS_TPSA>
61.4

> <PUBCHEM_MONOISOTOPIC_WEIGHT>
241.085126602

> <PUBCHEM_TOTAL_CHARGE>
0

> <PUBCHEM_HEAVY_ATOM_COUNT>
18

> <PUBCHEM_ATOM_DEF_STEREO_COUNT>
0

> <PUBCHEM_ATOM_UDEF_STEREO_COUNT>
0

> <PUBCHEM_BOND_DEF_STEREO_COUNT>
0

> <PUBCHEM_BOND_UDEF_STEREO_COUNT>
0

> <PUBCHEM_ISOTOPIC_ATOM_COUNT>
0

> <PUBCHEM_COMPONENT_COUNT>
1

> <PUBCHEM_CACTVS_TAUTO_COUNT>
-1

> <PUBCHEM_COORDINATE_TYPE>
1
5
255

> <PUBCHEM_BONDANNOTATIONS>
10  14  8
10  15  8
11  12  8
14  16  8
15  17  8
16  18  8
17  18  8
3  4  8
3  8  8
4  7  8
5  12  8
5  7  8
6  7  8
6  8  8
6  9  8
9  11  8

$$$$
