16727123
  -OEChem-03202505032D

 53 55  0     0  0  0  0  0  0999 V2000
   10.3312   -0.8450    0.0000 Cl  0  0  0  0  0  0  0  0  0  0  0  0
    6.0010    3.6550    0.0000 O   0  5  0  0  0  0  0  0  0  0  0  0
    5.1350    2.1550    0.0000 O   0  0  0  0  0  0  0  0  0  0  0  0
    6.0010    0.6550    0.0000 N   0  0  0  0  0  0  0  0  0  0  0  0
    2.5369   -3.3450    0.0000 N   0  0  0  0  0  0  0  0  0  0  0  0
    7.7331    0.6550    0.0000 N   0  0  0  0  0  0  0  0  0  0  0  0
    6.0010    2.6550    0.0000 N   0  3  0  0  0  0  0  0  0  0  0  0
    8.5991    2.1550    0.0000 N   0  0  0  0  0  0  0  0  0  0  0  0
    9.4651    0.6550    0.0000 N   0  0  0  0  0  0  0  0  0  0  0  0
    5.1350   -0.8450    0.0000 C   0  0  0  0  0  0  0  0  0  0  0  0
    3.4030   -1.8450    0.0000 C   0  0  0  0  0  0  0  0  0  0  0  0
    4.2690   -0.3450    0.0000 C   0  0  0  0  0  0  0  0  0  0  0  0
    5.1350   -1.8450    0.0000 C   0  0  0  0  0  0  0  0  0  0  0  0
    3.4030   -0.8450    0.0000 C   0  0  0  0  0  0  0  0  0  0  0  0
    4.2690   -2.3450    0.0000 C   0  0  0  0  0  0  0  0  0  0  0  0
    6.0010   -0.3450    0.0000 C   0  0  0  0  0  0  0  0  0  0  0  0
    2.5369   -2.3450    0.0000 C   0  0  0  0  0  0  0  0  0  0  0  0
    6.8671    1.1550    0.0000 C   0  0  0  0  0  0  0  0  0  0  0  0
    6.8671    2.1550    0.0000 C   0  0  0  0  0  0  0  0  0  0  0  0
    8.5991    1.1550    0.0000 C   0  0  0  0  0  0  0  0  0  0  0  0
    7.7331    2.6550    0.0000 C   0  0  0  0  0  0  0  0  0  0  0  0
   10.3312    1.1550    0.0000 C   0  0  0  0  0  0  0  0  0  0  0  0
   11.1972    0.6550    0.0000 C   0  0  0  0  0  0  0  0  0  0  0  0
   11.1972   -0.3450    0.0000 C   0  0  0  0  0  0  0  0  0  0  0  0
   12.0632    1.1550    0.0000 C   0  0  0  0  0  0  0  0  0  0  0  0
   12.0632   -0.8450    0.0000 C   0  0  0  0  0  0  0  0  0  0  0  0
   12.9292    0.6550    0.0000 C   0  0  0  0  0  0  0  0  0  0  0  0
   12.9292   -0.3450    0.0000 C   0  0  0  0  0  0  0  0  0  0  0  0
    5.1350   -0.2250    0.0000 H   0  0  0  0  0  0  0  0  0  0  0  0
    3.4030   -2.4650    0.0000 H   0  0  0  0  0  0  0  0  0  0  0  0
    4.6675    0.1299    0.0000 H   0  0  0  0  0  0  0  0  0  0  0  0
    3.8705    0.1299    0.0000 H   0  0  0  0  0  0  0  0  0  0  0  0
    5.3471   -2.4276    0.0000 H   0  0  0  0  0  0  0  0  0  0  0  0
    5.7456   -1.7373    0.0000 H   0  0  0  0  0  0  0  0  0  0  0  0
    3.1909   -0.2624    0.0000 H   0  0  0  0  0  0  0  0  0  0  0  0
    2.7924   -0.9527    0.0000 H   0  0  0  0  0  0  0  0  0  0  0  0
    3.8705   -2.8200    0.0000 H   0  0  0  0  0  0  0  0  0  0  0  0
    4.6675   -2.8200    0.0000 H   0  0  0  0  0  0  0  0  0  0  0  0
    6.2131   -0.9276    0.0000 H   0  0  0  0  0  0  0  0  0  0  0  0
    6.6116   -0.2373    0.0000 H   0  0  0  0  0  0  0  0  0  0  0  0
    2.3249   -1.7624    0.0000 H   0  0  0  0  0  0  0  0  0  0  0  0
    1.9264   -2.4527    0.0000 H   0  0  0  0  0  0  0  0  0  0  0  0
    5.4641    0.9650    0.0000 H   0  0  0  0  0  0  0  0  0  0  0  0
    2.0000   -3.6550    0.0000 H   0  0  0  0  0  0  0  0  0  0  0  0
    3.0739   -3.6550    0.0000 H   0  0  0  0  0  0  0  0  0  0  0  0
    7.7331    3.2750    0.0000 H   0  0  0  0  0  0  0  0  0  0  0  0
    9.4651    0.0350    0.0000 H   0  0  0  0  0  0  0  0  0  0  0  0
   10.7297    1.6300    0.0000 H   0  0  0  0  0  0  0  0  0  0  0  0
    9.9326    1.6300    0.0000 H   0  0  0  0  0  0  0  0  0  0  0  0
   12.0632    1.7750    0.0000 H   0  0  0  0  0  0  0  0  0  0  0  0
   12.0632   -1.4650    0.0000 H   0  0  0  0  0  0  0  0  0  0  0  0
   13.4662    0.9650    0.0000 H   0  0  0  0  0  0  0  0  0  0  0  0
   13.4662   -0.6550    0.0000 H   0  0  0  0  0  0  0  0  0  0  0  0
  1 24  1  0  0  0  0
  2  7  1  0  0  0  0
  3  7  2  0  0  0  0
  4 16  1  0  0  0  0
  4 18  1  0  0  0  0
  4 43  1  0  0  0  0
  5 17  1  0  0  0  0
  5 44  1  0  0  0  0
  5 45  1  0  0  0  0
  6 18  2  0  0  0  0
  6 20  1  0  0  0  0
  7 19  1  0  0  0  0
  8 20  2  0  0  0  0
  8 21  1  0  0  0  0
  9 20  1  0  0  0  0
  9 22  1  0  0  0  0
  9 47  1  0  0  0  0
 10 12  1  0  0  0  0
 10 13  1  0  0  0  0
 10 16  1  0  0  0  0
 10 29  1  0  0  0  0
 11 14  1  0  0  0  0
 11 15  1  0  0  0  0
 11 17  1  0  0  0  0
 11 30  1  0  0  0  0
 12 14  1  0  0  0  0
 12 31  1  0  0  0  0
 12 32  1  0  0  0  0
 13 15  1  0  0  0  0
 13 33  1  0  0  0  0
 13 34  1  0  0  0  0
 14 35  1  0  0  0  0
 14 36  1  0  0  0  0
 15 37  1  0  0  0  0
 15 38  1  0  0  0  0
 16 39  1  0  0  0  0
 16 40  1  0  0  0  0
 17 41  1  0  0  0  0
 17 42  1  0  0  0  0
 18 19  1  0  0  0  0
 19 21  2  0  0  0  0
 21 46  1  0  0  0  0
 22 23  1  0  0  0  0
 22 48  1  0  0  0  0
 22 49  1  0  0  0  0
 23 24  1  0  0  0  0
 23 25  2  0  0  0  0
 24 26  2  0  0  0  0
 25 27  1  0  0  0  0
 25 50  1  0  0  0  0
 26 28  1  0  0  0  0
 26 51  1  0  0  0  0
 27 28  2  0  0  0  0
 27 52  1  0  0  0  0
 28 53  1  0  0  0  0
M  CHG  2   2  -1   7   1
M  END
> <PUBCHEM_COMPOUND_CID>
16727123

> <PUBCHEM_COMPOUND_CANONICALIZED>
1

> <PUBCHEM_CACTVS_COMPLEXITY>
486

> <PUBCHEM_CACTVS_HBOND_ACCEPTOR>
7

> <PUBCHEM_CACTVS_HBOND_DONOR>
3

> <PUBCHEM_CACTVS_ROTATABLE_BOND>
7

> <PUBCHEM_CACTVS_SUBSKEYS>
AAADceB7sAAEAAAAAAAAAAAAAAAAAAAAAAA8YIAAAAAAAAABwAAAHAIUAAAADQrBGiQ98JbYUAChAjZnZwCCgCkxF6Ap2KAodpqIaKLB21GUJAhokILIiCcQgAAOAAAAAAABAACAAAAAAAIAAAAAAAAAAA==

> <PUBCHEM_IUPAC_OPENEYE_NAME>
N4-[[4-(aminomethyl)cyclohexyl]methyl]-N2-[(2-chlorophenyl)methyl]-5-nitro-pyrimidine-2,4-diamine

> <PUBCHEM_IUPAC_CAS_NAME>
N4-[[4-(aminomethyl)cyclohexyl]methyl]-N2-[(2-chlorophenyl)methyl]-5-nitropyrimidine-2,4-diamine

> <PUBCHEM_IUPAC_NAME_MARKUP>
4-<I>N</I>-[[4-(aminomethyl)cyclohexyl]methyl]-2-<I>N</I>-[(2-chlorophenyl)methyl]-5-nitropyrimidine-2,4-diamine

> <PUBCHEM_IUPAC_NAME>
4-N-[[4-(aminomethyl)cyclohexyl]methyl]-2-N-[(2-chlorophenyl)methyl]-5-nitropyrimidine-2,4-diamine

> <PUBCHEM_IUPAC_SYSTEMATIC_NAME>
N4-[[4-(aminomethyl)cyclohexyl]methyl]-N2-[(2-chlorophenyl)methyl]-5-nitro-pyrimidine-2,4-diamine

> <PUBCHEM_IUPAC_TRADITIONAL_NAME>
[4-(aminomethyl)cyclohexyl]methyl-[2-[(2-chlorobenzyl)amino]-5-nitro-pyrimidin-4-yl]amine

> <PUBCHEM_IUPAC_INCHI>
InChI=1S/C19H25ClN6O2/c20-16-4-2-1-3-15(16)11-23-19-24-12-17(26(27)28)18(25-19)22-10-14-7-5-13(9-21)6-8-14/h1-4,12-14H,5-11,21H2,(H2,22,23,24,25)

> <PUBCHEM_IUPAC_INCHIKEY>
TUJUZVJICDSNLY-UHFFFAOYSA-N

> <PUBCHEM_XLOGP3_AA>
4.1

> <PUBCHEM_EXACT_MASS>
404.1727518

> <PUBCHEM_MOLECULAR_FORMULA>
C19H25ClN6O2

> <PUBCHEM_MOLECULAR_WEIGHT>
404.9

> <PUBCHEM_SMILES>
C1CC(CCC1CN)CNC2=NC(=NC=C2[N+](=O)[O-])NCC3=CC=CC=C3Cl

> <PUBCHEM_OPENEYE_CAN_SMILES>
C1CC(CCC1CN)CNC2=NC(=NC=C2[N+](=O)[O-])NCC3=CC=CC=C3Cl

> <PUBCHEM_OPENEYE_ISO_SMILES>
C1CC(CCC1CN)CNC2=NC(=NC=C2[N+](=O)[O-])NCC3=CC=CC=C3Cl

> <PUBCHEM_CACTVS_TPSA>
122

> <PUBCHEM_MONOISOTOPIC_WEIGHT>
404.1727518

> <PUBCHEM_TOTAL_CHARGE>
0

> <PUBCHEM_HEAVY_ATOM_COUNT>
28

> <PUBCHEM_ATOM_DEF_STEREO_COUNT>
0

> <PUBCHEM_ATOM_UDEF_STEREO_COUNT>
0

> <PUBCHEM_BOND_DEF_STEREO_COUNT>
0

> <PUBCHEM_BOND_UDEF_STEREO_COUNT>
0

> <PUBCHEM_ISOTOPIC_ATOM_COUNT>
0

> <PUBCHEM_COMPONENT_COUNT>
1

> <PUBCHEM_CACTVS_TAUTO_COUNT>
-1

> <PUBCHEM_COORDINATE_TYPE>
1
5
255

> <PUBCHEM_BONDANNOTATIONS>
18  19  8
19  21  8
23  24  8
23  25  8
24  26  8
25  27  8
26  28  8
27  28  8
6  18  8
6  20  8
8  20  8
8  21  8

$$$$
