16050449
  -OEChem-03202503092D

 60 64  0     0  0  0  0  0  0999 V2000
   10.2619   -1.0968    0.0000 F   0  0  0  0  0  0  0  0  0  0  0  0
   10.8349    4.3349    0.0000 O   0  0  0  0  0  0  0  0  0  0  0  0
    4.7320   -0.5968    0.0000 N   0  0  0  0  0  0  0  0  0  0  0  0
    3.0000   -1.5968    0.0000 N   0  0  0  0  0  0  0  0  0  0  0  0
    5.6783   -1.9015    0.0000 N   0  0  0  0  0  0  0  0  0  0  0  0
    8.2566    2.0215    0.0000 N   0  0  0  0  0  0  0  0  0  0  0  0
    6.9674    0.8647    0.0000 N   0  0  0  0  0  0  0  0  0  0  0  0
    6.6103    2.5595    0.0000 N   0  0  0  0  0  0  0  0  0  0  0  0
    3.0000   -3.5968    0.0000 C   0  0  0  0  0  0  0  0  0  0  0  0
    2.0000   -3.5968    0.0000 C   0  0  0  0  0  0  0  0  0  0  0  0
    2.5000   -4.4628    0.0000 C   0  0  0  0  0  0  0  0  0  0  0  0
    3.8660   -3.0968    0.0000 C   0  0  0  0  0  0  0  0  0  0  0  0
    3.8660   -2.0968    0.0000 C   0  0  0  0  0  0  0  0  0  0  0  0
    4.7320   -1.5968    0.0000 C   0  0  0  0  0  0  0  0  0  0  0  0
    5.6783   -0.2920    0.0000 C   0  0  0  0  0  0  0  0  0  0  0  0
    9.5458    3.1782    0.0000 C   0  0  0  0  0  0  0  0  0  0  0  0
    6.2619   -1.0968    0.0000 C   0  0  0  0  0  0  0  0  0  0  0  0
    3.8660   -0.0968    0.0000 C   0  0  0  0  0  0  0  0  0  0  0  0
    3.0000   -0.5968    0.0000 C   0  0  0  0  0  0  0  0  0  0  0  0
    8.5673    2.9720    0.0000 C   0  0  0  0  0  0  0  0  0  0  0  0
    5.9889    0.6585    0.0000 C   0  0  0  0  0  0  0  0  0  0  0  0
   10.5243    3.3844    0.0000 C   0  0  0  0  0  0  0  0  0  0  0  0
    9.3396    4.1567    0.0000 C   0  0  0  0  0  0  0  0  0  0  0  0
    9.7520    2.1997    0.0000 C   0  0  0  0  0  0  0  0  0  0  0  0
    7.2619   -1.0968    0.0000 C   0  0  0  0  0  0  0  0  0  0  0  0
    7.2781    1.8152    0.0000 C   0  0  0  0  0  0  0  0  0  0  0  0
    5.3211    1.4028    0.0000 C   0  0  0  0  0  0  0  0  0  0  0  0
    7.7619   -1.9628    0.0000 C   0  0  0  0  0  0  0  0  0  0  0  0
    7.7619   -0.2307    0.0000 C   0  0  0  0  0  0  0  0  0  0  0  0
    5.6318    2.3533    0.0000 C   0  0  0  0  0  0  0  0  0  0  0  0
    8.7619   -1.9628    0.0000 C   0  0  0  0  0  0  0  0  0  0  0  0
    8.7619   -0.2307    0.0000 C   0  0  0  0  0  0  0  0  0  0  0  0
    9.2619   -1.0968    0.0000 C   0  0  0  0  0  0  0  0  0  0  0  0
    2.8395   -2.9979    0.0000 H   0  0  0  0  0  0  0  0  0  0  0  0
    1.8923   -2.9862    0.0000 H   0  0  0  0  0  0  0  0  0  0  0  0
    1.4174   -3.8088    0.0000 H   0  0  0  0  0  0  0  0  0  0  0  0
    2.0250   -4.8613    0.0000 H   0  0  0  0  0  0  0  0  0  0  0  0
    2.9750   -4.8613    0.0000 H   0  0  0  0  0  0  0  0  0  0  0  0
    4.0781   -3.6794    0.0000 H   0  0  0  0  0  0  0  0  0  0  0  0
    4.4766   -2.9891    0.0000 H   0  0  0  0  0  0  0  0  0  0  0  0
    3.8660    0.5232    0.0000 H   0  0  0  0  0  0  0  0  0  0  0  0
    2.4631   -0.2868    0.0000 H   0  0  0  0  0  0  0  0  0  0  0  0
    8.5467    3.5916    0.0000 H   0  0  0  0  0  0  0  0  0  0  0  0
    7.9534    3.0593    0.0000 H   0  0  0  0  0  0  0  0  0  0  0  0
   10.5448    2.7648    0.0000 H   0  0  0  0  0  0  0  0  0  0  0  0
   11.1381    3.2971    0.0000 H   0  0  0  0  0  0  0  0  0  0  0  0
    9.9462    4.2846    0.0000 H   0  0  0  0  0  0  0  0  0  0  0  0
    9.2117    4.7634    0.0000 H   0  0  0  0  0  0  0  0  0  0  0  0
    8.7329    4.0288    0.0000 H   0  0  0  0  0  0  0  0  0  0  0  0
    9.1453    2.0718    0.0000 H   0  0  0  0  0  0  0  0  0  0  0  0
    9.8798    1.5930    0.0000 H   0  0  0  0  0  0  0  0  0  0  0  0
   10.3587    2.3275    0.0000 H   0  0  0  0  0  0  0  0  0  0  0  0
    8.6707    1.5600    0.0000 H   0  0  0  0  0  0  0  0  0  0  0  0
    4.7144    1.2749    0.0000 H   0  0  0  0  0  0  0  0  0  0  0  0
    7.4519   -2.4997    0.0000 H   0  0  0  0  0  0  0  0  0  0  0  0
    7.4519    0.3062    0.0000 H   0  0  0  0  0  0  0  0  0  0  0  0
   11.4416    4.4628    0.0000 H   0  0  0  0  0  0  0  0  0  0  0  0
    5.2177    2.8148    0.0000 H   0  0  0  0  0  0  0  0  0  0  0  0
    9.0719   -2.4997    0.0000 H   0  0  0  0  0  0  0  0  0  0  0  0
    9.0719    0.3062    0.0000 H   0  0  0  0  0  0  0  0  0  0  0  0
  1 33  1  0  0  0  0
  2 22  1  0  0  0  0
  2 57  1  0  0  0  0
  3 14  1  0  0  0  0
  3 15  1  0  0  0  0
  3 18  1  0  0  0  0
  4 13  2  0  0  0  0
  4 19  1  0  0  0  0
  5 14  2  0  0  0  0
  5 17  1  0  0  0  0
  6 20  1  0  0  0  0
  6 26  1  0  0  0  0
  6 53  1  0  0  0  0
  7 21  2  0  0  0  0
  7 26  1  0  0  0  0
  8 26  2  0  0  0  0
  8 30  1  0  0  0  0
  9 10  1  0  0  0  0
  9 11  1  0  0  0  0
  9 12  1  0  0  0  0
  9 34  1  0  0  0  0
 10 11  1  0  0  0  0
 10 35  1  0  0  0  0
 10 36  1  0  0  0  0
 11 37  1  0  0  0  0
 11 38  1  0  0  0  0
 12 13  1  0  0  0  0
 12 39  1  0  0  0  0
 12 40  1  0  0  0  0
 13 14  1  0  0  0  0
 15 17  2  0  0  0  0
 15 21  1  0  0  0  0
 16 20  1  0  0  0  0
 16 22  1  0  0  0  0
 16 23  1  0  0  0  0
 16 24  1  0  0  0  0
 17 25  1  0  0  0  0
 18 19  2  0  0  0  0
 18 41  1  0  0  0  0
 19 42  1  0  0  0  0
 20 43  1  0  0  0  0
 20 44  1  0  0  0  0
 21 27  1  0  0  0  0
 22 45  1  0  0  0  0
 22 46  1  0  0  0  0
 23 47  1  0  0  0  0
 23 48  1  0  0  0  0
 23 49  1  0  0  0  0
 24 50  1  0  0  0  0
 24 51  1  0  0  0  0
 24 52  1  0  0  0  0
 25 28  2  0  0  0  0
 25 29  1  0  0  0  0
 27 30  2  0  0  0  0
 27 54  1  0  0  0  0
 28 31  1  0  0  0  0
 28 55  1  0  0  0  0
 29 32  2  0  0  0  0
 29 56  1  0  0  0  0
 30 58  1  0  0  0  0
 31 33  2  0  0  0  0
 31 59  1  0  0  0  0
 32 33  1  0  0  0  0
 32 60  1  0  0  0  0
M  END
> <PUBCHEM_COMPOUND_CID>
16050449

> <PUBCHEM_COMPOUND_CANONICALIZED>
1

> <PUBCHEM_CACTVS_COMPLEXITY>
640

> <PUBCHEM_CACTVS_HBOND_ACCEPTOR>
7

> <PUBCHEM_CACTVS_HBOND_DONOR>
2

> <PUBCHEM_CACTVS_ROTATABLE_BOND>
8

> <PUBCHEM_CACTVS_SUBSKEYS>
AAADceB7oQAAAAAAAAAAAAAAGAAAAWAAAAA8WIAAAAAAAFgB/AAAHwAQCAAADwjhnw4/sJ/MGgCgAzZnZACCgC0xEqAJ2KA4dJiIeOLA2dGUZAhqgALIyCcQgMAOAAAAAAAAAAAAAAAAAAAAAAAAAAAAAA==

> <PUBCHEM_IUPAC_OPENEYE_NAME>
3-[[4-[8-(cyclopropylmethyl)-2-(4-fluorophenyl)imidazo[1,2-a]pyrazin-3-yl]pyrimidin-2-yl]amino]-2,2-dimethyl-propan-1-ol

> <PUBCHEM_IUPAC_CAS_NAME>
3-[[4-[8-(cyclopropylmethyl)-2-(4-fluorophenyl)-3-imidazo[1,2-a]pyrazinyl]-2-pyrimidinyl]amino]-2,2-dimethyl-1-propanol

> <PUBCHEM_IUPAC_NAME_MARKUP>
3-[[4-[8-(cyclopropylmethyl)-2-(4-fluorophenyl)imidazo[1,2-a]pyrazin-3-yl]pyrimidin-2-yl]amino]-2,2-dimethylpropan-1-ol

> <PUBCHEM_IUPAC_NAME>
3-[[4-[8-(cyclopropylmethyl)-2-(4-fluorophenyl)imidazo[1,2-a]pyrazin-3-yl]pyrimidin-2-yl]amino]-2,2-dimethylpropan-1-ol

> <PUBCHEM_IUPAC_SYSTEMATIC_NAME>
3-[[4-[8-(cyclopropylmethyl)-2-(4-fluorophenyl)imidazo[1,2-a]pyrazin-3-yl]pyrimidin-2-yl]amino]-2,2-dimethyl-propan-1-ol

> <PUBCHEM_IUPAC_TRADITIONAL_NAME>
3-[[4-[8-(cyclopropylmethyl)-2-(4-fluorophenyl)imidazo[1,2-a]pyrazin-3-yl]pyrimidin-2-yl]amino]-2,2-dimethyl-propan-1-ol

> <PUBCHEM_IUPAC_INCHI>
InChI=1S/C25H27FN6O/c1-25(2,15-33)14-29-24-28-10-9-19(30-24)22-21(17-5-7-18(26)8-6-17)31-23-20(13-16-3-4-16)27-11-12-32(22)23/h5-12,16,33H,3-4,13-15H2,1-2H3,(H,28,29,30)

> <PUBCHEM_IUPAC_INCHIKEY>
GUHUQPHEGAYGKK-UHFFFAOYSA-N

> <PUBCHEM_XLOGP3_AA>
5.2

> <PUBCHEM_EXACT_MASS>
446.22303767

> <PUBCHEM_MOLECULAR_FORMULA>
C25H27FN6O

> <PUBCHEM_MOLECULAR_WEIGHT>
446.5

> <PUBCHEM_SMILES>
CC(C)(CNC1=NC=CC(=N1)C2=C(N=C3N2C=CN=C3CC4CC4)C5=CC=C(C=C5)F)CO

> <PUBCHEM_OPENEYE_CAN_SMILES>
CC(C)(CNC1=NC=CC(=N1)C2=C(N=C3N2C=CN=C3CC4CC4)C5=CC=C(C=C5)F)CO

> <PUBCHEM_OPENEYE_ISO_SMILES>
CC(C)(CNC1=NC=CC(=N1)C2=C(N=C3N2C=CN=C3CC4CC4)C5=CC=C(C=C5)F)CO

> <PUBCHEM_CACTVS_TPSA>
88.2

> <PUBCHEM_MONOISOTOPIC_WEIGHT>
446.22303767

> <PUBCHEM_TOTAL_CHARGE>
0

> <PUBCHEM_HEAVY_ATOM_COUNT>
33

> <PUBCHEM_ATOM_DEF_STEREO_COUNT>
0

> <PUBCHEM_ATOM_UDEF_STEREO_COUNT>
0

> <PUBCHEM_BOND_DEF_STEREO_COUNT>
0

> <PUBCHEM_BOND_UDEF_STEREO_COUNT>
0

> <PUBCHEM_ISOTOPIC_ATOM_COUNT>
0

> <PUBCHEM_COMPONENT_COUNT>
1

> <PUBCHEM_CACTVS_TAUTO_COUNT>
-1

> <PUBCHEM_COORDINATE_TYPE>
1
5
255

> <PUBCHEM_BONDANNOTATIONS>
13  14  8
15  17  8
18  19  8
21  27  8
25  28  8
25  29  8
27  30  8
28  31  8
29  32  8
3  14  8
3  15  8
3  18  8
31  33  8
32  33  8
4  13  8
4  19  8
5  14  8
5  17  8
7  21  8
7  26  8
8  26  8
8  30  8

$$$$
