71575642
  -OEChem-03202504572D

 43 46  0     0  0  0  0  0  0999 V2000
    2.8660    5.4470    0.0000 Cl  0  0  0  0  0  0  0  0  0  0  0  0
    5.4641    4.9470    0.0000 F   0  0  0  0  0  0  0  0  0  0  0  0
    4.0981    5.3130    0.0000 F   0  0  0  0  0  0  0  0  0  0  0  0
    5.0981    3.5810    0.0000 F   0  0  0  0  0  0  0  0  0  0  0  0
    7.1962   -2.0530    0.0000 O   0  0  0  0  0  0  0  0  0  0  0  0
    4.5981    1.4470    0.0000 O   0  0  0  0  0  0  0  0  0  0  0  0
    2.8660    1.4470    0.0000 N   0  0  0  0  0  0  0  0  0  0  0  0
    3.7320   -0.0530    0.0000 N   0  0  0  0  0  0  0  0  0  0  0  0
    9.0084   -4.8577    0.0000 N   0  0  0  0  0  0  0  0  0  0  0  0
    6.3301   -3.5530    0.0000 N   0  0  0  0  0  0  0  0  0  0  0  0
    7.1962   -5.0530    0.0000 N   0  0  0  0  0  0  0  0  0  0  0  0
    9.5920   -4.0530    0.0000 N   0  0  0  0  0  0  0  0  0  0  0  0
    2.8660    2.4470    0.0000 C   0  0  0  0  0  0  0  0  0  0  0  0
    3.7320    3.9470    0.0000 C   0  0  0  0  0  0  0  0  0  0  0  0
    4.5981   -0.5530    0.0000 C   0  0  0  0  0  0  0  0  0  0  0  0
    3.7320    2.9470    0.0000 C   0  0  0  0  0  0  0  0  0  0  0  0
    8.0622   -3.5530    0.0000 C   0  0  0  0  0  0  0  0  0  0  0  0
    6.3301   -1.5530    0.0000 C   0  0  0  0  0  0  0  0  0  0  0  0
    7.1962   -3.0530    0.0000 C   0  0  0  0  0  0  0  0  0  0  0  0
    2.0000    2.9470    0.0000 C   0  0  0  0  0  0  0  0  0  0  0  0
    8.0622   -4.5530    0.0000 C   0  0  0  0  0  0  0  0  0  0  0  0
    2.8660    4.4470    0.0000 C   0  0  0  0  0  0  0  0  0  0  0  0
    5.4641   -0.0530    0.0000 C   0  0  0  0  0  0  0  0  0  0  0  0
    4.5981   -1.5530    0.0000 C   0  0  0  0  0  0  0  0  0  0  0  0
    6.3301   -0.5530    0.0000 C   0  0  0  0  0  0  0  0  0  0  0  0
    5.4641   -2.0530    0.0000 C   0  0  0  0  0  0  0  0  0  0  0  0
    2.0000    3.9470    0.0000 C   0  0  0  0  0  0  0  0  0  0  0  0
    3.7320    0.9470    0.0000 C   0  0  0  0  0  0  0  0  0  0  0  0
    4.5981    4.4470    0.0000 C   0  0  0  0  0  0  0  0  0  0  0  0
    9.0084   -3.2482    0.0000 C   0  0  0  0  0  0  0  0  0  0  0  0
    6.3301   -4.5530    0.0000 C   0  0  0  0  0  0  0  0  0  0  0  0
    4.2690    2.6370    0.0000 H   0  0  0  0  0  0  0  0  0  0  0  0
    1.4631    2.6370    0.0000 H   0  0  0  0  0  0  0  0  0  0  0  0
    2.3291    1.1370    0.0000 H   0  0  0  0  0  0  0  0  0  0  0  0
    5.4641    0.5670    0.0000 H   0  0  0  0  0  0  0  0  0  0  0  0
    4.0611   -1.8630    0.0000 H   0  0  0  0  0  0  0  0  0  0  0  0
    6.8671   -0.2430    0.0000 H   0  0  0  0  0  0  0  0  0  0  0  0
    5.4641   -2.6730    0.0000 H   0  0  0  0  0  0  0  0  0  0  0  0
    3.1951   -0.3630    0.0000 H   0  0  0  0  0  0  0  0  0  0  0  0
    1.4631    4.2570    0.0000 H   0  0  0  0  0  0  0  0  0  0  0  0
    9.2010   -2.6589    0.0000 H   0  0  0  0  0  0  0  0  0  0  0  0
    9.2010   -5.4470    0.0000 H   0  0  0  0  0  0  0  0  0  0  0  0
    5.7932   -4.8630    0.0000 H   0  0  0  0  0  0  0  0  0  0  0  0
  1 22  1  0  0  0  0
  2 29  1  0  0  0  0
  3 29  1  0  0  0  0
  4 29  1  0  0  0  0
  5 18  1  0  0  0  0
  5 19  1  0  0  0  0
  6 28  2  0  0  0  0
  7 13  1  0  0  0  0
  7 28  1  0  0  0  0
  7 34  1  0  0  0  0
  8 15  1  0  0  0  0
  8 28  1  0  0  0  0
  8 39  1  0  0  0  0
  9 12  1  0  0  0  0
  9 21  1  0  0  0  0
  9 42  1  0  0  0  0
 10 19  2  0  0  0  0
 10 31  1  0  0  0  0
 11 21  1  0  0  0  0
 11 31  2  0  0  0  0
 12 30  2  0  0  0  0
 13 16  2  0  0  0  0
 13 20  1  0  0  0  0
 14 16  1  0  0  0  0
 14 22  2  0  0  0  0
 14 29  1  0  0  0  0
 15 23  2  0  0  0  0
 15 24  1  0  0  0  0
 16 32  1  0  0  0  0
 17 19  1  0  0  0  0
 17 21  2  0  0  0  0
 17 30  1  0  0  0  0
 18 25  2  0  0  0  0
 18 26  1  0  0  0  0
 20 27  2  0  0  0  0
 20 33  1  0  0  0  0
 22 27  1  0  0  0  0
 23 25  1  0  0  0  0
 23 35  1  0  0  0  0
 24 26  2  0  0  0  0
 24 36  1  0  0  0  0
 25 37  1  0  0  0  0
 26 38  1  0  0  0  0
 27 40  1  0  0  0  0
 30 41  1  0  0  0  0
 31 43  1  0  0  0  0
M  END
> <PUBCHEM_COMPOUND_CID>
71575642

> <PUBCHEM_COMPOUND_CANONICALIZED>
1

> <PUBCHEM_CACTVS_COMPLEXITY>
622

> <PUBCHEM_CACTVS_HBOND_ACCEPTOR>
8

> <PUBCHEM_CACTVS_HBOND_DONOR>
3

> <PUBCHEM_CACTVS_ROTATABLE_BOND>
4

> <PUBCHEM_CACTVS_SUBSKEYS>
AAADccB7sYAEAAAAAAAAAAAAAAAAAWAAAAA8YIAAAAAAAFgB/AAAHwIYAAAADA7BmzQ99t7rFACqAjZndACSjCuxp6Ad+SAubpiMLqLF+9uOvCju3BtI6CewwAAOAEBAQAABAAAAgICAAAIAAAAAAAAAAA==

> <PUBCHEM_IUPAC_OPENEYE_NAME>
1-[4-chloro-3-(trifluoromethyl)phenyl]-3-[4-(1H-pyrazolo[3,4-d]pyrimidin-4-yloxy)phenyl]urea

> <PUBCHEM_IUPAC_CAS_NAME>
1-[4-chloro-3-(trifluoromethyl)phenyl]-3-[4-(1H-pyrazolo[3,4-d]pyrimidin-4-yloxy)phenyl]urea

> <PUBCHEM_IUPAC_NAME_MARKUP>
1-[4-chloro-3-(trifluoromethyl)phenyl]-3-[4-(1<I>H</I>-pyrazolo[3,4-d]pyrimidin-4-yloxy)phenyl]urea

> <PUBCHEM_IUPAC_NAME>
1-[4-chloro-3-(trifluoromethyl)phenyl]-3-[4-(1H-pyrazolo[3,4-d]pyrimidin-4-yloxy)phenyl]urea

> <PUBCHEM_IUPAC_SYSTEMATIC_NAME>
1-[4-chloranyl-3-(trifluoromethyl)phenyl]-3-[4-(1H-pyrazolo[3,4-d]pyrimidin-4-yloxy)phenyl]urea

> <PUBCHEM_IUPAC_TRADITIONAL_NAME>
1-[4-chloro-3-(trifluoromethyl)phenyl]-3-[4-(1H-pyrazolo[3,4-d]pyrimidin-4-yloxy)phenyl]urea

> <PUBCHEM_IUPAC_INCHI>
InChI=1S/C19H12ClF3N6O2/c20-15-6-3-11(7-14(15)19(21,22)23)28-18(30)27-10-1-4-12(5-2-10)31-17-13-8-26-29-16(13)24-9-25-17/h1-9H,(H2,27,28,30)(H,24,25,26,29)

> <PUBCHEM_IUPAC_INCHIKEY>
NZCHGHMPHKCWLR-UHFFFAOYSA-N

> <PUBCHEM_XLOGP3_AA>
4.1

> <PUBCHEM_EXACT_MASS>
448.0662358

> <PUBCHEM_MOLECULAR_FORMULA>
C19H12ClF3N6O2

> <PUBCHEM_MOLECULAR_WEIGHT>
448.8

> <PUBCHEM_SMILES>
C1=CC(=CC=C1NC(=O)NC2=CC(=C(C=C2)Cl)C(F)(F)F)OC3=NC=NC4=C3C=NN4

> <PUBCHEM_OPENEYE_CAN_SMILES>
C1=CC(=CC=C1NC(=O)NC2=CC(=C(C=C2)Cl)C(F)(F)F)OC3=NC=NC4=C3C=NN4

> <PUBCHEM_OPENEYE_ISO_SMILES>
C1=CC(=CC=C1NC(=O)NC2=CC(=C(C=C2)Cl)C(F)(F)F)OC3=NC=NC4=C3C=NN4

> <PUBCHEM_CACTVS_TPSA>
105

> <PUBCHEM_MONOISOTOPIC_WEIGHT>
448.0662358

> <PUBCHEM_TOTAL_CHARGE>
0

> <PUBCHEM_HEAVY_ATOM_COUNT>
31

> <PUBCHEM_ATOM_DEF_STEREO_COUNT>
0

> <PUBCHEM_ATOM_UDEF_STEREO_COUNT>
0

> <PUBCHEM_BOND_DEF_STEREO_COUNT>
0

> <PUBCHEM_BOND_UDEF_STEREO_COUNT>
0

> <PUBCHEM_ISOTOPIC_ATOM_COUNT>
0

> <PUBCHEM_COMPONENT_COUNT>
1

> <PUBCHEM_CACTVS_TAUTO_COUNT>
-1

> <PUBCHEM_COORDINATE_TYPE>
1
5
255

> <PUBCHEM_BONDANNOTATIONS>
10  19  8
10  31  8
11  21  8
11  31  8
12  30  8
13  16  8
13  20  8
14  16  8
14  22  8
15  23  8
15  24  8
17  19  8
17  21  8
17  30  8
18  25  8
18  26  8
20  27  8
22  27  8
23  25  8
24  26  8
9  12  8
9  21  8

$$$$
