49830816
  -OEChem-03202504262D

 44 47  0     0  0  0  0  0  0999 V2000
    6.0812   -0.8459    0.0000 S   0  0  0  0  0  0  0  0  0  0  0  0
    5.3669    4.1532    0.0000 F   0  0  0  0  0  0  0  0  0  0  0  0
    4.2690   -4.0412    0.0000 O   0  0  0  0  0  0  0  0  0  0  0  0
    7.5140    4.4739    0.0000 N   0  0  0  0  0  0  0  0  0  0  0  0
    3.4030    0.4588    0.0000 N   0  0  0  0  0  0  0  0  0  0  0  0
    4.2690    1.9588    0.0000 N   0  0  0  0  0  0  0  0  0  0  0  0
    2.5369   -4.0412    0.0000 N   0  0  0  0  0  0  0  0  0  0  0  0
    6.0812    0.7636    0.0000 C   0  0  0  0  0  0  0  0  0  0  0  0
    6.3919    1.7141    0.0000 C   0  0  0  0  0  0  0  0  0  0  0  0
    7.6811    2.8708    0.0000 C   0  0  0  0  0  0  0  0  0  0  0  0
    5.1350    0.4588    0.0000 C   0  0  0  0  0  0  0  0  0  0  0  0
    7.0132    3.6151    0.0000 C   0  0  0  0  0  0  0  0  0  0  0  0
    7.3704    1.9203    0.0000 C   0  0  0  0  0  0  0  0  0  0  0  0
    5.1350   -0.5412    0.0000 C   0  0  0  0  0  0  0  0  0  0  0  0
    5.7240    2.4584    0.0000 C   0  0  0  0  0  0  0  0  0  0  0  0
    8.5889    3.2760    0.0000 C   0  0  0  0  0  0  0  0  0  0  0  0
    8.4858    4.2647    0.0000 C   0  0  0  0  0  0  0  0  0  0  0  0
    6.0347    3.4089    0.0000 C   0  0  0  0  0  0  0  0  0  0  0  0
    6.6648   -0.0412    0.0000 C   0  0  0  0  0  0  0  0  0  0  0  0
    4.2690    0.9588    0.0000 C   0  0  0  0  0  0  0  0  0  0  0  0
    4.2690   -1.0412    0.0000 C   0  0  0  0  0  0  0  0  0  0  0  0
    9.2301    4.9325    0.0000 C   0  0  0  0  0  0  0  0  0  0  0  0
    3.4030   -0.5412    0.0000 C   0  0  0  0  0  0  0  0  0  0  0  0
    4.2690   -2.0412    0.0000 C   0  0  0  0  0  0  0  0  0  0  0  0
    3.4030   -2.5412    0.0000 C   0  0  0  0  0  0  0  0  0  0  0  0
    3.4030   -3.5412    0.0000 C   0  0  0  0  0  0  0  0  0  0  0  0
    2.5369   -5.0412    0.0000 C   0  0  0  0  0  0  0  0  0  0  0  0
    7.7845    1.4588    0.0000 H   0  0  0  0  0  0  0  0  0  0  0  0
    5.1174    2.3306    0.0000 H   0  0  0  0  0  0  0  0  0  0  0  0
    9.1258    2.9660    0.0000 H   0  0  0  0  0  0  0  0  0  0  0  0
    7.2638    5.0412    0.0000 H   0  0  0  0  0  0  0  0  0  0  0  0
    7.2848   -0.0412    0.0000 H   0  0  0  0  0  0  0  0  0  0  0  0
    9.6442    4.4711    0.0000 H   0  0  0  0  0  0  0  0  0  0  0  0
    9.6916    5.3466    0.0000 H   0  0  0  0  0  0  0  0  0  0  0  0
    8.8160    5.3940    0.0000 H   0  0  0  0  0  0  0  0  0  0  0  0
    2.8660   -0.8512    0.0000 H   0  0  0  0  0  0  0  0  0  0  0  0
    4.8059   -2.3512    0.0000 H   0  0  0  0  0  0  0  0  0  0  0  0
    3.7320    2.2688    0.0000 H   0  0  0  0  0  0  0  0  0  0  0  0
    4.8059    2.2688    0.0000 H   0  0  0  0  0  0  0  0  0  0  0  0
    2.8660   -2.2312    0.0000 H   0  0  0  0  0  0  0  0  0  0  0  0
    2.0000   -3.7312    0.0000 H   0  0  0  0  0  0  0  0  0  0  0  0
    1.9169   -5.0412    0.0000 H   0  0  0  0  0  0  0  0  0  0  0  0
    2.5369   -5.6612    0.0000 H   0  0  0  0  0  0  0  0  0  0  0  0
    3.1569   -5.0412    0.0000 H   0  0  0  0  0  0  0  0  0  0  0  0
  1 14  1  0  0  0  0
  1 19  1  0  0  0  0
  2 18  1  0  0  0  0
  3 26  2  0  0  0  0
  4 12  1  0  0  0  0
  4 17  1  0  0  0  0
  4 31  1  0  0  0  0
  5 20  2  0  0  0  0
  5 23  1  0  0  0  0
  6 20  1  0  0  0  0
  6 38  1  0  0  0  0
  6 39  1  0  0  0  0
  7 26  1  0  0  0  0
  7 27  1  0  0  0  0
  7 41  1  0  0  0  0
  8  9  1  0  0  0  0
  8 11  1  0  0  0  0
  8 19  2  0  0  0  0
  9 13  1  0  0  0  0
  9 15  2  0  0  0  0
 10 12  1  0  0  0  0
 10 13  2  0  0  0  0
 10 16  1  0  0  0  0
 11 14  2  0  0  0  0
 11 20  1  0  0  0  0
 12 18  2  0  0  0  0
 13 28  1  0  0  0  0
 14 21  1  0  0  0  0
 15 18  1  0  0  0  0
 15 29  1  0  0  0  0
 16 17  2  0  0  0  0
 16 30  1  0  0  0  0
 17 22  1  0  0  0  0
 19 32  1  0  0  0  0
 21 23  2  0  0  0  0
 21 24  1  0  0  0  0
 22 33  1  0  0  0  0
 22 34  1  0  0  0  0
 22 35  1  0  0  0  0
 23 36  1  0  0  0  0
 24 25  2  3  0  0  0
 24 37  1  0  0  0  0
 25 26  1  0  0  0  0
 25 40  1  0  0  0  0
 27 42  1  0  0  0  0
 27 43  1  0  0  0  0
 27 44  1  0  0  0  0
M  END
> <PUBCHEM_COMPOUND_CID>
49830816

> <PUBCHEM_COMPOUND_CANONICALIZED>
1

> <PUBCHEM_CACTVS_COMPLEXITY>
590

> <PUBCHEM_CACTVS_HBOND_ACCEPTOR>
5

> <PUBCHEM_CACTVS_HBOND_DONOR>
3

> <PUBCHEM_CACTVS_ROTATABLE_BOND>
3

> <PUBCHEM_CACTVS_SUBSKEYS>
AAADceB7oQBAAAAAAAAAAAAAAAAAAWJAAAA8QAAAAAAAAFgB/gAAHwQQAAAADAjF3gy/8fLJkAisAzd3dACDgKkxCjAI2bA4ZNiIIOLgkZGEIAxgkgLoyacQgMAOiAACAAACAAAQAAQAAAQAAAAAAAAAAA==

> <PUBCHEM_IUPAC_OPENEYE_NAME>
3-[4-amino-3-(7-fluoro-2-methyl-1H-indol-5-yl)thieno[3,2-c]pyridin-7-yl]-N-methyl-prop-2-enamide

> <PUBCHEM_IUPAC_CAS_NAME>
3-[4-amino-3-(7-fluoro-2-methyl-1H-indol-5-yl)-7-thieno[3,2-c]pyridinyl]-N-methyl-2-propenamide

> <PUBCHEM_IUPAC_NAME_MARKUP>
3-[4-amino-3-(7-fluoro-2-methyl-1<I>H</I>-indol-5-yl)thieno[3,2-c]pyridin-7-yl]-<I>N</I>-methylprop-2-enamide

> <PUBCHEM_IUPAC_NAME>
3-[4-amino-3-(7-fluoro-2-methyl-1H-indol-5-yl)thieno[3,2-c]pyridin-7-yl]-N-methylprop-2-enamide

> <PUBCHEM_IUPAC_SYSTEMATIC_NAME>
3-[4-azanyl-3-(7-fluoranyl-2-methyl-1H-indol-5-yl)thieno[3,2-c]pyridin-7-yl]-N-methyl-prop-2-enamide

> <PUBCHEM_IUPAC_TRADITIONAL_NAME>
3-[4-amino-3-(7-fluoro-2-methyl-1H-indol-5-yl)thieno[3,2-c]pyridin-7-yl]-N-methyl-acrylamide

> <PUBCHEM_IUPAC_INCHI>
InChI=1S/C20H17FN4OS/c1-10-5-13-6-12(7-15(21)18(13)25-10)14-9-27-19-11(3-4-16(26)23-2)8-24-20(22)17(14)19/h3-9,25H,1-2H3,(H2,22,24)(H,23,26)

> <PUBCHEM_IUPAC_INCHIKEY>
KNACLJBHKVSTDL-UHFFFAOYSA-N

> <PUBCHEM_XLOGP3_AA>
3.5

> <PUBCHEM_EXACT_MASS>
380.11071051

> <PUBCHEM_MOLECULAR_FORMULA>
C20H17FN4OS

> <PUBCHEM_MOLECULAR_WEIGHT>
380.4

> <PUBCHEM_SMILES>
CC1=CC2=CC(=CC(=C2N1)F)C3=CSC4=C3C(=NC=C4C=CC(=O)NC)N

> <PUBCHEM_OPENEYE_CAN_SMILES>
CC1=CC2=CC(=CC(=C2N1)F)C3=CSC4=C3C(=NC=C4C=CC(=O)NC)N

> <PUBCHEM_OPENEYE_ISO_SMILES>
CC1=CC2=CC(=CC(=C2N1)F)C3=CSC4=C3C(=NC=C4C=CC(=O)NC)N

> <PUBCHEM_CACTVS_TPSA>
112

> <PUBCHEM_MONOISOTOPIC_WEIGHT>
380.11071051

> <PUBCHEM_TOTAL_CHARGE>
0

> <PUBCHEM_HEAVY_ATOM_COUNT>
27

> <PUBCHEM_ATOM_DEF_STEREO_COUNT>
0

> <PUBCHEM_ATOM_UDEF_STEREO_COUNT>
0

> <PUBCHEM_BOND_DEF_STEREO_COUNT>
0

> <PUBCHEM_BOND_UDEF_STEREO_COUNT>
1

> <PUBCHEM_ISOTOPIC_ATOM_COUNT>
0

> <PUBCHEM_COMPONENT_COUNT>
1

> <PUBCHEM_CACTVS_TAUTO_COUNT>
-1

> <PUBCHEM_COORDINATE_TYPE>
1
5
255

> <PUBCHEM_BONDANNOTATIONS>
1  14  8
1  19  8
10  12  8
10  13  8
10  16  8
11  14  8
11  20  8
12  18  8
14  21  8
15  18  8
16  17  8
21  23  8
24  25  1
4  12  8
4  17  8
5  20  8
5  23  8
8  11  8
8  19  8
9  13  8
9  15  8

$$$$
