136027076
  -OEChem-03202503072D

 31 33  0     0  0  0  0  0  0999 V2000
    8.3288    0.9013    0.0000 F   0  0  0  0  0  0  0  0  0  0  0  0
    9.1011    2.0861    0.0000 F   0  0  0  0  0  0  0  0  0  0  0  0
    7.9164    2.8584    0.0000 F   0  0  0  0  0  0  0  0  0  0  0  0
    2.0000   -2.2384    0.0000 O   0  0  0  0  0  0  0  0  0  0  0  0
    6.1279   -1.2384    0.0000 N   0  0  0  0  0  0  0  0  0  0  0  0
    3.7320   -2.2384    0.0000 N   0  0  0  0  0  0  0  0  0  0  0  0
    5.5443   -2.0431    0.0000 N   0  0  0  0  0  0  0  0  0  0  0  0
    4.5981   -0.7384    0.0000 C   0  0  0  0  0  0  0  0  0  0  0  0
    5.5443   -0.4336    0.0000 C   0  0  0  0  0  0  0  0  0  0  0  0
    4.5981   -1.7384    0.0000 C   0  0  0  0  0  0  0  0  0  0  0  0
    3.7320   -0.2384    0.0000 C   0  0  0  0  0  0  0  0  0  0  0  0
    5.8550    0.5169    0.0000 C   0  0  0  0  0  0  0  0  0  0  0  0
    6.8335    0.7231    0.0000 C   0  0  0  0  0  0  0  0  0  0  0  0
    2.8660   -0.7384    0.0000 C   0  0  0  0  0  0  0  0  0  0  0  0
    5.1871    1.2612    0.0000 C   0  0  0  0  0  0  0  0  0  0  0  0
    7.1441    1.6736    0.0000 C   0  0  0  0  0  0  0  0  0  0  0  0
    3.7320    0.7616    0.0000 C   0  0  0  0  0  0  0  0  0  0  0  0
    2.8660   -1.7384    0.0000 C   0  0  0  0  0  0  0  0  0  0  0  0
    5.4978    2.2117    0.0000 C   0  0  0  0  0  0  0  0  0  0  0  0
    6.4763    2.4179    0.0000 C   0  0  0  0  0  0  0  0  0  0  0  0
    8.1226    1.8798    0.0000 C   0  0  0  0  0  0  0  0  0  0  0  0
    6.7479   -1.2384    0.0000 H   0  0  0  0  0  0  0  0  0  0  0  0
    7.2475    0.2616    0.0000 H   0  0  0  0  0  0  0  0  0  0  0  0
    3.7320   -2.8584    0.0000 H   0  0  0  0  0  0  0  0  0  0  0  0
    2.3291   -0.4284    0.0000 H   0  0  0  0  0  0  0  0  0  0  0  0
    4.5804    1.1333    0.0000 H   0  0  0  0  0  0  0  0  0  0  0  0
    4.3520    0.7616    0.0000 H   0  0  0  0  0  0  0  0  0  0  0  0
    3.7320    1.3816    0.0000 H   0  0  0  0  0  0  0  0  0  0  0  0
    3.1120    0.7616    0.0000 H   0  0  0  0  0  0  0  0  0  0  0  0
    5.0837    2.6732    0.0000 H   0  0  0  0  0  0  0  0  0  0  0  0
    6.6689    3.0073    0.0000 H   0  0  0  0  0  0  0  0  0  0  0  0
  1 21  1  0  0  0  0
  2 21  1  0  0  0  0
  3 21  1  0  0  0  0
  4 18  2  0  0  0  0
  5  7  1  0  0  0  0
  5  9  1  0  0  0  0
  5 22  1  0  0  0  0
  6 10  1  0  0  0  0
  6 18  1  0  0  0  0
  6 24  1  0  0  0  0
  7 10  2  0  0  0  0
  8  9  2  0  0  0  0
  8 10  1  0  0  0  0
  8 11  1  0  0  0  0
  9 12  1  0  0  0  0
 11 14  2  0  0  0  0
 11 17  1  0  0  0  0
 12 13  2  0  0  0  0
 12 15  1  0  0  0  0
 13 16  1  0  0  0  0
 13 23  1  0  0  0  0
 14 18  1  0  0  0  0
 14 25  1  0  0  0  0
 15 19  2  0  0  0  0
 15 26  1  0  0  0  0
 16 20  2  0  0  0  0
 16 21  1  0  0  0  0
 17 27  1  0  0  0  0
 17 28  1  0  0  0  0
 17 29  1  0  0  0  0
 19 20  1  0  0  0  0
 19 30  1  0  0  0  0
 20 31  1  0  0  0  0
M  END
> <PUBCHEM_COMPOUND_CID>
136027076

> <PUBCHEM_COMPOUND_CANONICALIZED>
1

> <PUBCHEM_CACTVS_COMPLEXITY>
463

> <PUBCHEM_CACTVS_HBOND_ACCEPTOR>
5

> <PUBCHEM_CACTVS_HBOND_DONOR>
2

> <PUBCHEM_CACTVS_ROTATABLE_BOND>
1

> <PUBCHEM_CACTVS_SUBSKEYS>
AAADccBzIYAAAAAAAAAAAAAAAAAAAWAAAAAwQAAAAAAAAEABwAAAHwAYAAAADAiBnhAzsJLjAACqAydycACSBAIhAAAduSAgRNiIIKLA2dGEpAhwnQLIyQcQgMAOAAACAAAAAAAAAAQAAAAAAAAAAAAAAA==

> <PUBCHEM_IUPAC_OPENEYE_NAME>
4-methyl-3-[3-(trifluoromethyl)phenyl]-2,7-dihydropyrazolo[3,4-b]pyridin-6-one

> <PUBCHEM_IUPAC_CAS_NAME>
4-methyl-3-[3-(trifluoromethyl)phenyl]-2,7-dihydropyrazolo[3,4-b]pyridin-6-one

> <PUBCHEM_IUPAC_NAME_MARKUP>
4-methyl-3-[3-(trifluoromethyl)phenyl]-2,7-dihydropyrazolo[3,4-b]pyridin-6-one

> <PUBCHEM_IUPAC_NAME>
4-methyl-3-[3-(trifluoromethyl)phenyl]-2,7-dihydropyrazolo[3,4-b]pyridin-6-one

> <PUBCHEM_IUPAC_SYSTEMATIC_NAME>
4-methyl-3-[3-(trifluoromethyl)phenyl]-2,7-dihydropyrazolo[3,4-b]pyridin-6-one

> <PUBCHEM_IUPAC_TRADITIONAL_NAME>
4-methyl-3-[3-(trifluoromethyl)phenyl]-2,7-dihydropyrazolo[3,4-b]pyridin-6-one

> <PUBCHEM_IUPAC_INCHI>
InChI=1S/C14H10F3N3O/c1-7-5-10(21)18-13-11(7)12(19-20-13)8-3-2-4-9(6-8)14(15,16)17/h2-6H,1H3,(H2,18,19,20,21)

> <PUBCHEM_IUPAC_INCHIKEY>
BBXIECANPYCIMM-UHFFFAOYSA-N

> <PUBCHEM_XLOGP3_AA>
2.4

> <PUBCHEM_EXACT_MASS>
293.07759644

> <PUBCHEM_MOLECULAR_FORMULA>
C14H10F3N3O

> <PUBCHEM_MOLECULAR_WEIGHT>
293.24

> <PUBCHEM_SMILES>
CC1=CC(=O)NC2=NNC(=C12)C3=CC(=CC=C3)C(F)(F)F

> <PUBCHEM_OPENEYE_CAN_SMILES>
CC1=CC(=O)NC2=NNC(=C12)C3=CC(=CC=C3)C(F)(F)F

> <PUBCHEM_OPENEYE_ISO_SMILES>
CC1=CC(=O)NC2=NNC(=C12)C3=CC(=CC=C3)C(F)(F)F

> <PUBCHEM_CACTVS_TPSA>
57.8

> <PUBCHEM_MONOISOTOPIC_WEIGHT>
293.07759644

> <PUBCHEM_TOTAL_CHARGE>
0

> <PUBCHEM_HEAVY_ATOM_COUNT>
21

> <PUBCHEM_ATOM_DEF_STEREO_COUNT>
0

> <PUBCHEM_ATOM_UDEF_STEREO_COUNT>
0

> <PUBCHEM_BOND_DEF_STEREO_COUNT>
0

> <PUBCHEM_BOND_UDEF_STEREO_COUNT>
0

> <PUBCHEM_ISOTOPIC_ATOM_COUNT>
0

> <PUBCHEM_COMPONENT_COUNT>
1

> <PUBCHEM_CACTVS_TAUTO_COUNT>
-1

> <PUBCHEM_COORDINATE_TYPE>
1
5
255

> <PUBCHEM_BONDANNOTATIONS>
11  14  8
12  13  8
12  15  8
13  16  8
14  18  8
15  19  8
16  20  8
19  20  8
5  7  8
5  9  8
6  10  8
6  18  8
7  10  8
8  10  8
8  11  8
8  9  8

$$$$
