3155438
  -OEChem-03202504112D

 40 42  0     1  0  0  0  0  0999 V2000
    2.8660    0.8100    0.0000 F   0  0  0  0  0  0  0  0  0  0  0  0
    4.5981   -2.1900    0.0000 O   0  0  0  0  0  0  0  0  0  0  0  0
    6.9939   -1.1900    0.0000 N   0  0  0  0  0  0  0  0  0  0  0  0
    6.4103   -1.9947    0.0000 N   0  0  0  0  0  0  0  0  0  0  0  0
    2.8660   -2.1900    0.0000 N   0  0  0  0  0  0  0  0  0  0  0  0
    2.0000    0.3100    0.0000 N   0  0  0  0  0  0  0  0  0  0  0  0
    7.1546    0.2826    0.0000 C   0  0  0  0  0  0  0  0  0  0  0  0
    6.4103   -0.3853    0.0000 C   0  0  0  0  0  0  0  0  0  0  0  0
    5.4641   -0.6900    0.0000 C   0  0  0  0  0  0  0  0  0  0  0  0
    4.5981   -0.1900    0.0000 C   0  0  3  0  0  0  0  0  0  0  0  0
    7.8989    0.9504    0.0000 C   0  0  0  0  0  0  0  0  0  0  0  0
    7.8225   -0.4617    0.0000 C   0  0  0  0  0  0  0  0  0  0  0  0
    6.4868    1.0269    0.0000 C   0  0  0  0  0  0  0  0  0  0  0  0
    5.4641   -1.6900    0.0000 C   0  0  0  0  0  0  0  0  0  0  0  0
    4.5981    0.8100    0.0000 C   0  0  0  0  0  0  0  0  0  0  0  0
    3.7320   -0.6900    0.0000 C   0  0  0  0  0  0  0  0  0  0  0  0
    3.7320   -1.6900    0.0000 C   0  0  0  0  0  0  0  0  0  0  0  0
    3.7320    1.3100    0.0000 C   0  0  0  0  0  0  0  0  0  0  0  0
    5.4641    1.3100    0.0000 C   0  0  0  0  0  0  0  0  0  0  0  0
    2.8660   -0.1900    0.0000 C   0  0  0  0  0  0  0  0  0  0  0  0
    3.7320    2.3100    0.0000 C   0  0  0  0  0  0  0  0  0  0  0  0
    5.4641    2.3100    0.0000 C   0  0  0  0  0  0  0  0  0  0  0  0
    4.5981    2.8100    0.0000 C   0  0  0  0  0  0  0  0  0  0  0  0
    4.0611    0.1200    0.0000 H   0  0  0  0  0  0  0  0  0  0  0  0
    8.3130    0.4890    0.0000 H   0  0  0  0  0  0  0  0  0  0  0  0
    8.3604    1.3645    0.0000 H   0  0  0  0  0  0  0  0  0  0  0  0
    7.4849    1.4119    0.0000 H   0  0  0  0  0  0  0  0  0  0  0  0
    7.3610   -0.8758    0.0000 H   0  0  0  0  0  0  0  0  0  0  0  0
    8.2365   -0.9232    0.0000 H   0  0  0  0  0  0  0  0  0  0  0  0
    8.2839   -0.0477    0.0000 H   0  0  0  0  0  0  0  0  0  0  0  0
    6.9482    1.4409    0.0000 H   0  0  0  0  0  0  0  0  0  0  0  0
    6.0727    1.4883    0.0000 H   0  0  0  0  0  0  0  0  0  0  0  0
    6.0253    0.6128    0.0000 H   0  0  0  0  0  0  0  0  0  0  0  0
    7.6139   -1.1900    0.0000 H   0  0  0  0  0  0  0  0  0  0  0  0
    6.0010    1.0000    0.0000 H   0  0  0  0  0  0  0  0  0  0  0  0
    3.1951    2.6200    0.0000 H   0  0  0  0  0  0  0  0  0  0  0  0
    6.0010    2.6200    0.0000 H   0  0  0  0  0  0  0  0  0  0  0  0
    2.8660   -2.8100    0.0000 H   0  0  0  0  0  0  0  0  0  0  0  0
    2.3291   -1.8800    0.0000 H   0  0  0  0  0  0  0  0  0  0  0  0
    4.5981    3.4300    0.0000 H   0  0  0  0  0  0  0  0  0  0  0  0
  1 18  1  0  0  0  0
  2 14  1  0  0  0  0
  2 17  1  0  0  0  0
  3  4  1  0  0  0  0
  3  8  1  0  0  0  0
  3 34  1  0  0  0  0
  4 14  2  0  0  0  0
  5 17  1  0  0  0  0
  5 38  1  0  0  0  0
  5 39  1  0  0  0  0
  6 20  3  0  0  0  0
  7  8  1  0  0  0  0
  7 11  1  0  0  0  0
  7 12  1  0  0  0  0
  7 13  1  0  0  0  0
  8  9  2  0  0  0  0
  9 10  1  0  0  0  0
  9 14  1  0  0  0  0
 10 15  1  0  0  0  0
 10 16  1  0  0  0  0
 10 24  1  0  0  0  0
 11 25  1  0  0  0  0
 11 26  1  0  0  0  0
 11 27  1  0  0  0  0
 12 28  1  0  0  0  0
 12 29  1  0  0  0  0
 12 30  1  0  0  0  0
 13 31  1  0  0  0  0
 13 32  1  0  0  0  0
 13 33  1  0  0  0  0
 15 18  1  0  0  0  0
 15 19  2  0  0  0  0
 16 17  2  0  0  0  0
 16 20  1  0  0  0  0
 18 21  2  0  0  0  0
 19 22  1  0  0  0  0
 19 35  1  0  0  0  0
 21 23  1  0  0  0  0
 21 36  1  0  0  0  0
 22 23  2  0  0  0  0
 22 37  1  0  0  0  0
 23 40  1  0  0  0  0
M  END
> <PUBCHEM_COMPOUND_CID>
3155438

> <PUBCHEM_COMPOUND_CANONICALIZED>
1

> <PUBCHEM_CACTVS_COMPLEXITY>
547

> <PUBCHEM_CACTVS_HBOND_ACCEPTOR>
5

> <PUBCHEM_CACTVS_HBOND_DONOR>
2

> <PUBCHEM_CACTVS_ROTATABLE_BOND>
2

> <PUBCHEM_CACTVS_SUBSKEYS>
AAADceB7oQAAAAAAAAAAAAAAAAAAAWAAAAAwQAAAAAAAAEABwAAAHwAYAAAADwiBnggyhJBjBACyByRiQACyDAAgIAAYuSAkTJkMpiKE8dqItCBmiBgI6A+QwOAPgAAAAAAAAAAAAAAAAAAAAAAAAAAAAA==

> <PUBCHEM_IUPAC_OPENEYE_NAME>
6-amino-3-tert-butyl-4-(2-fluorophenyl)-2,4-dihydropyrano[2,3-c]pyrazole-5-carbonitrile

> <PUBCHEM_IUPAC_CAS_NAME>
6-amino-3-tert-butyl-4-(2-fluorophenyl)-2,4-dihydropyrano[2,3-c]pyrazole-5-carbonitrile

> <PUBCHEM_IUPAC_NAME_MARKUP>
6-amino-3-<I>tert</I>-butyl-4-(2-fluorophenyl)-2,4-dihydropyrano[2,3-c]pyrazole-5-carbonitrile

> <PUBCHEM_IUPAC_NAME>
6-amino-3-tert-butyl-4-(2-fluorophenyl)-2,4-dihydropyrano[2,3-c]pyrazole-5-carbonitrile

> <PUBCHEM_IUPAC_SYSTEMATIC_NAME>
6-azanyl-3-tert-butyl-4-(2-fluorophenyl)-2,4-dihydropyrano[2,3-c]pyrazole-5-carbonitrile

> <PUBCHEM_IUPAC_TRADITIONAL_NAME>
6-amino-3-tert-butyl-4-(2-fluorophenyl)-2,4-dihydropyrano[2,3-c]pyrazole-5-carbonitrile

> <PUBCHEM_IUPAC_INCHI>
InChI=1S/C17H17FN4O/c1-17(2,3)14-13-12(9-6-4-5-7-11(9)18)10(8-19)15(20)23-16(13)22-21-14/h4-7,12H,20H2,1-3H3,(H,21,22)

> <PUBCHEM_IUPAC_INCHIKEY>
SAVYFZRLWUDEDV-UHFFFAOYSA-N

> <PUBCHEM_XLOGP3_AA>
3.7

> <PUBCHEM_EXACT_MASS>
312.13863934

> <PUBCHEM_MOLECULAR_FORMULA>
C17H17FN4O

> <PUBCHEM_MOLECULAR_WEIGHT>
312.34

> <PUBCHEM_SMILES>
CC(C)(C)C1=C2C(C(=C(OC2=NN1)N)C#N)C3=CC=CC=C3F

> <PUBCHEM_OPENEYE_CAN_SMILES>
CC(C)(C)C1=C2C(C(=C(OC2=NN1)N)C#N)C3=CC=CC=C3F

> <PUBCHEM_OPENEYE_ISO_SMILES>
CC(C)(C)C1=C2C(C(=C(OC2=NN1)N)C#N)C3=CC=CC=C3F

> <PUBCHEM_CACTVS_TPSA>
87.7

> <PUBCHEM_MONOISOTOPIC_WEIGHT>
312.13863934

> <PUBCHEM_TOTAL_CHARGE>
0

> <PUBCHEM_HEAVY_ATOM_COUNT>
23

> <PUBCHEM_ATOM_DEF_STEREO_COUNT>
0

> <PUBCHEM_ATOM_UDEF_STEREO_COUNT>
1

> <PUBCHEM_BOND_DEF_STEREO_COUNT>
0

> <PUBCHEM_BOND_UDEF_STEREO_COUNT>
0

> <PUBCHEM_ISOTOPIC_ATOM_COUNT>
0

> <PUBCHEM_COMPONENT_COUNT>
1

> <PUBCHEM_CACTVS_TAUTO_COUNT>
-1

> <PUBCHEM_COORDINATE_TYPE>
1
5
255

> <PUBCHEM_BONDANNOTATIONS>
10  15  3
15  18  8
15  19  8
18  21  8
19  22  8
21  23  8
22  23  8
3  4  8
3  8  8
4  14  8
8  9  8
9  14  8

$$$$
