49830896
  -OEChem-03202501452D

 22 24  0     0  0  0  0  0  0999 V2000
    6.9942    1.9350    0.0000 Br  0  0  0  0  0  0  0  0  0  0  0  0
    5.7367   -1.9350    0.0000 Cl  0  0  0  0  0  0  0  0  0  0  0  0
    4.8717    1.3360    0.0000 S   0  0  0  0  0  0  0  0  0  0  0  0
    2.3444    0.2118    0.0000 O   0  0  0  0  0  0  0  0  0  0  0  0
    2.7493    1.9350    0.0000 O   0  0  0  0  0  0  0  0  0  0  0  0
    3.6868   -0.9876    0.0000 N   0  0  0  0  0  0  0  0  0  0  0  0
    5.3717   -0.2029    0.0000 C   0  0  0  0  0  0  0  0  0  0  0  0
    4.3717   -0.2029    0.0000 C   0  0  0  0  0  0  0  0  0  0  0  0
    5.6808    0.7482    0.0000 C   0  0  0  0  0  0  0  0  0  0  0  0
    4.0627    0.7482    0.0000 C   0  0  0  0  0  0  0  0  0  0  0  0
    6.0567   -0.9876    0.0000 C   0  0  0  0  0  0  0  0  0  0  0  0
    6.6962    0.9804    0.0000 C   0  0  0  0  0  0  0  0  0  0  0  0
    3.0473    0.9804    0.0000 C   0  0  0  0  0  0  0  0  0  0  0  0
    7.0772   -0.7789    0.0000 C   0  0  0  0  0  0  0  0  0  0  0  0
    2.6663   -0.7789    0.0000 C   0  0  0  0  0  0  0  0  0  0  0  0
    7.3991    0.2118    0.0000 C   0  0  0  0  0  0  0  0  0  0  0  0
    2.0000   -1.5246    0.0000 C   0  0  0  0  0  0  0  0  0  0  0  0
    7.4903   -1.2412    0.0000 H   0  0  0  0  0  0  0  0  0  0  0  0
    8.0050    0.3430    0.0000 H   0  0  0  0  0  0  0  0  0  0  0  0
    1.5376   -1.1115    0.0000 H   0  0  0  0  0  0  0  0  0  0  0  0
    1.5869   -1.9870    0.0000 H   0  0  0  0  0  0  0  0  0  0  0  0
    2.4623   -1.9377    0.0000 H   0  0  0  0  0  0  0  0  0  0  0  0
  1 12  1  0  0  0  0
  2 11  1  0  0  0  0
  3  9  1  0  0  0  0
  3 10  1  0  0  0  0
  4 13  1  0  0  0  0
  4 15  1  0  0  0  0
  5 13  2  0  0  0  0
  6  8  1  0  0  0  0
  6 15  2  0  0  0  0
  7  8  1  0  0  0  0
  7  9  1  0  0  0  0
  7 11  2  0  0  0  0
  8 10  2  0  0  0  0
  9 12  2  0  0  0  0
 10 13  1  0  0  0  0
 11 14  1  0  0  0  0
 12 16  1  0  0  0  0
 14 16  2  0  0  0  0
 14 18  1  0  0  0  0
 15 17  1  0  0  0  0
 16 19  1  0  0  0  0
 17 20  1  0  0  0  0
 17 21  1  0  0  0  0
 17 22  1  0  0  0  0
M  END
> <PUBCHEM_COMPOUND_CID>
49830896

> <PUBCHEM_COMPOUND_CANONICALIZED>
1

> <PUBCHEM_CACTVS_COMPLEXITY>
392

> <PUBCHEM_CACTVS_HBOND_ACCEPTOR>
4

> <PUBCHEM_CACTVS_HBOND_DONOR>
0

> <PUBCHEM_CACTVS_ROTATABLE_BOND>
0

> <PUBCHEM_CACTVS_SUBSKEYS>
AAADcYByMABEEAAAAAAAAAAAAAAAASAAAAAwQAAAAAAAAEgB8AAAHgZAAAABrAqB2CAyycIABAisAiTyTACDAIAkDRQIiBUQTugIJjqhtpmCMYRmwAEo61eYyKCOAAAIEBAFAEAAABAgIAoAgAAAAAAAAA==

> <PUBCHEM_IUPAC_OPENEYE_NAME>
6-bromo-9-chloro-2-methyl-benzothiopheno[3,2-d][1,3]oxazin-4-one

> <PUBCHEM_IUPAC_CAS_NAME>
6-bromo-9-chloro-2-methyl-[1]benzothiolo[3,2-d][1,3]oxazin-4-one

> <PUBCHEM_IUPAC_NAME_MARKUP>
6-bromo-9-chloro-2-methyl-[1]benzothiolo[3,2-d][1,3]oxazin-4-one

> <PUBCHEM_IUPAC_NAME>
6-bromo-9-chloro-2-methyl-[1]benzothiolo[3,2-d][1,3]oxazin-4-one

> <PUBCHEM_IUPAC_SYSTEMATIC_NAME>
6-bromanyl-9-chloranyl-2-methyl-[1]benzothiolo[3,2-d][1,3]oxazin-4-one

> <PUBCHEM_IUPAC_TRADITIONAL_NAME>
6-bromo-9-chloro-2-methyl-benzothiopheno[3,2-d][1,3]oxazin-4-one

> <PUBCHEM_IUPAC_INCHI>
InChI=1S/C11H5BrClNO2S/c1-4-14-8-7-6(13)3-2-5(12)9(7)17-10(8)11(15)16-4/h2-3H,1H3

> <PUBCHEM_IUPAC_INCHIKEY>
OBZHLULOFFWAJX-UHFFFAOYSA-N

> <PUBCHEM_XLOGP3_AA>
3.9

> <PUBCHEM_EXACT_MASS>
328.89129

> <PUBCHEM_MOLECULAR_FORMULA>
C11H5BrClNO2S

> <PUBCHEM_MOLECULAR_WEIGHT>
330.59

> <PUBCHEM_SMILES>
CC1=NC2=C(C(=O)O1)SC3=C(C=CC(=C23)Cl)Br

> <PUBCHEM_OPENEYE_CAN_SMILES>
CC1=NC2=C(C(=O)O1)SC3=C(C=CC(=C23)Cl)Br

> <PUBCHEM_OPENEYE_ISO_SMILES>
CC1=NC2=C(C(=O)O1)SC3=C(C=CC(=C23)Cl)Br

> <PUBCHEM_CACTVS_TPSA>
66.9

> <PUBCHEM_MONOISOTOPIC_WEIGHT>
328.89129

> <PUBCHEM_TOTAL_CHARGE>
0

> <PUBCHEM_HEAVY_ATOM_COUNT>
17

> <PUBCHEM_ATOM_DEF_STEREO_COUNT>
0

> <PUBCHEM_ATOM_UDEF_STEREO_COUNT>
0

> <PUBCHEM_BOND_DEF_STEREO_COUNT>
0

> <PUBCHEM_BOND_UDEF_STEREO_COUNT>
0

> <PUBCHEM_ISOTOPIC_ATOM_COUNT>
0

> <PUBCHEM_COMPONENT_COUNT>
1

> <PUBCHEM_CACTVS_TAUTO_COUNT>
-1

> <PUBCHEM_COORDINATE_TYPE>
1
5
255

> <PUBCHEM_BONDANNOTATIONS>
10  13  8
11  14  8
12  16  8
14  16  8
3  10  8
3  9  8
4  13  8
4  15  8
6  15  8
6  8  8
7  11  8
7  8  8
7  9  8
8  10  8
9  12  8

$$$$
