21362669
  -OEChem-03202507222D

 22 24  0     0  0  0  0  0  0999 V2000
    4.5274    1.4932    0.0000 N   0  0  0  0  0  0  0  0  0  0  0  0
    2.0000    0.3689    0.0000 N   0  0  0  0  0  0  0  0  0  0  0  0
    8.0654   -2.1132    0.0000 N   0  0  0  0  0  0  0  0  0  0  0  0
    5.0274   -0.0457    0.0000 C   0  0  0  0  0  0  0  0  0  0  0  0
    4.0274   -0.0457    0.0000 C   0  0  0  0  0  0  0  0  0  0  0  0
    5.3364    0.9054    0.0000 C   0  0  0  0  0  0  0  0  0  0  0  0
    3.7183    0.9054    0.0000 C   0  0  0  0  0  0  0  0  0  0  0  0
    5.7123   -0.8304    0.0000 C   0  0  0  0  0  0  0  0  0  0  0  0
    6.3518    1.1376    0.0000 C   0  0  0  0  0  0  0  0  0  0  0  0
    3.3424   -0.8304    0.0000 C   0  0  0  0  0  0  0  0  0  0  0  0
    2.7029    1.1376    0.0000 C   0  0  0  0  0  0  0  0  0  0  0  0
    6.7328   -0.6217    0.0000 C   0  0  0  0  0  0  0  0  0  0  0  0
    7.0547    0.3689    0.0000 C   0  0  0  0  0  0  0  0  0  0  0  0
    2.3219   -0.6217    0.0000 C   0  0  0  0  0  0  0  0  0  0  0  0
    7.3991   -1.3674    0.0000 C   0  0  0  0  0  0  0  0  0  0  0  0
    4.5274    2.1132    0.0000 H   0  0  0  0  0  0  0  0  0  0  0  0
    5.5139   -1.4178    0.0000 H   0  0  0  0  0  0  0  0  0  0  0  0
    6.5365    1.7294    0.0000 H   0  0  0  0  0  0  0  0  0  0  0  0
    3.5408   -1.4178    0.0000 H   0  0  0  0  0  0  0  0  0  0  0  0
    2.5182    1.7294    0.0000 H   0  0  0  0  0  0  0  0  0  0  0  0
    7.6607    0.5002    0.0000 H   0  0  0  0  0  0  0  0  0  0  0  0
    1.9088   -1.0841    0.0000 H   0  0  0  0  0  0  0  0  0  0  0  0
  1  6  1  0  0  0  0
  1  7  1  0  0  0  0
  1 16  1  0  0  0  0
  2 11  2  0  0  0  0
  2 14  1  0  0  0  0
  3 15  3  0  0  0  0
  4  5  1  0  0  0  0
  4  6  2  0  0  0  0
  4  8  1  0  0  0  0
  5  7  2  0  0  0  0
  5 10  1  0  0  0  0
  6  9  1  0  0  0  0
  7 11  1  0  0  0  0
  8 12  2  0  0  0  0
  8 17  1  0  0  0  0
  9 13  2  0  0  0  0
  9 18  1  0  0  0  0
 10 14  2  0  0  0  0
 10 19  1  0  0  0  0
 11 20  1  0  0  0  0
 12 13  1  0  0  0  0
 12 15  1  0  0  0  0
 13 21  1  0  0  0  0
 14 22  1  0  0  0  0
M  END
> <PUBCHEM_COMPOUND_CID>
21362669

> <PUBCHEM_COMPOUND_CANONICALIZED>
1

> <PUBCHEM_CACTVS_COMPLEXITY>
292

> <PUBCHEM_CACTVS_HBOND_ACCEPTOR>
2

> <PUBCHEM_CACTVS_HBOND_DONOR>
1

> <PUBCHEM_CACTVS_ROTATABLE_BOND>
0

> <PUBCHEM_CACTVS_SUBSKEYS>
AAADcYBzAAAAAAAAAAAAAAAAAAAAAWAAAAA8QAAAAAAAAFgB/gAAHAAQAAAADAjBHgQ8wPLJkACwBzRnRACigCQxEiAI2SA4dJgI4OLAkZGUIAhgkADIyA8QgMAOiAACAAACAAAQAAQAAAQAAAAAAAAAAA==

> <PUBCHEM_IUPAC_OPENEYE_NAME>
9H-pyrido[3,4-b]indole-6-carbonitrile

> <PUBCHEM_IUPAC_CAS_NAME>
9H-pyrido[3,4-b]indole-6-carbonitrile

> <PUBCHEM_IUPAC_NAME_MARKUP>
9<I>H</I>-pyrido[3,4-b]indole-6-carbonitrile

> <PUBCHEM_IUPAC_NAME>
9H-pyrido[3,4-b]indole-6-carbonitrile

> <PUBCHEM_IUPAC_SYSTEMATIC_NAME>
9H-pyrido[3,4-b]indole-6-carbonitrile

> <PUBCHEM_IUPAC_TRADITIONAL_NAME>
9H-beta-carboline-6-carbonitrile

> <PUBCHEM_IUPAC_INCHI>
InChI=1S/C12H7N3/c13-6-8-1-2-11-10(5-8)9-3-4-14-7-12(9)15-11/h1-5,7,15H

> <PUBCHEM_IUPAC_INCHIKEY>
HYOYTXXNDDYLMC-UHFFFAOYSA-N

> <PUBCHEM_XLOGP3>
2.9

> <PUBCHEM_EXACT_MASS>
193.063997236

> <PUBCHEM_MOLECULAR_FORMULA>
C12H7N3

> <PUBCHEM_MOLECULAR_WEIGHT>
193.20

> <PUBCHEM_SMILES>
C1=CC2=C(C=C1C#N)C3=C(N2)C=NC=C3

> <PUBCHEM_OPENEYE_CAN_SMILES>
C1=CC2=C(C=C1C#N)C3=C(N2)C=NC=C3

> <PUBCHEM_OPENEYE_ISO_SMILES>
C1=CC2=C(C=C1C#N)C3=C(N2)C=NC=C3

> <PUBCHEM_CACTVS_TPSA>
52.5

> <PUBCHEM_MONOISOTOPIC_WEIGHT>
193.063997236

> <PUBCHEM_TOTAL_CHARGE>
0

> <PUBCHEM_HEAVY_ATOM_COUNT>
15

> <PUBCHEM_ATOM_DEF_STEREO_COUNT>
0

> <PUBCHEM_ATOM_UDEF_STEREO_COUNT>
0

> <PUBCHEM_BOND_DEF_STEREO_COUNT>
0

> <PUBCHEM_BOND_UDEF_STEREO_COUNT>
0

> <PUBCHEM_ISOTOPIC_ATOM_COUNT>
0

> <PUBCHEM_COMPONENT_COUNT>
1

> <PUBCHEM_CACTVS_TAUTO_COUNT>
-1

> <PUBCHEM_COORDINATE_TYPE>
1
5
255

> <PUBCHEM_BONDANNOTATIONS>
1  6  8
1  7  8
10  14  8
12  13  8
2  11  8
2  14  8
4  5  8
4  6  8
4  8  8
5  10  8
5  7  8
6  9  8
7  11  8
8  12  8
9  13  8

$$$$
