53469448
  -OEChem-03202504492D

 53 57  0     0  0  0  0  0  0999 V2000
    7.2626    6.1215    0.0000 F   0  0  0  0  0  0  0  0  0  0  0  0
    5.8651    5.9051    0.0000 F   0  0  0  0  0  0  0  0  0  0  0  0
    7.4790    4.7240    0.0000 F   0  0  0  0  0  0  0  0  0  0  0  0
    4.7133    1.1717    0.0000 O   0  0  0  0  0  0  0  0  0  0  0  0
    6.1110    0.1488    0.0000 N   0  0  0  0  0  0  0  0  0  0  0  0
    4.6783   -5.1710    0.0000 N   0  0  0  0  0  0  0  0  0  0  0  0
    2.8660   -5.3663    0.0000 N   0  0  0  0  0  0  0  0  0  0  0  0
    2.0000   -3.8663    0.0000 N   0  0  0  0  0  0  0  0  0  0  0  0
    2.8660   -2.3663    0.0000 N   0  0  0  0  0  0  0  0  0  0  0  0
    7.1859   -1.0492    0.0000 C   0  0  0  0  0  0  0  0  0  0  0  0
    6.2781   -1.4543    0.0000 C   0  0  0  0  0  0  0  0  0  0  0  0
    7.0828   -0.0604    0.0000 C   0  0  0  0  0  0  0  0  0  0  0  0
    5.6103   -0.7100    0.0000 C   0  0  0  0  0  0  0  0  0  0  0  0
    5.9674   -2.4048    0.0000 C   0  0  0  0  0  0  0  0  0  0  0  0
    4.9889   -2.6110    0.0000 C   0  0  0  0  0  0  0  0  0  0  0  0
    4.6318   -0.9162    0.0000 C   0  0  0  0  0  0  0  0  0  0  0  0
    4.6783   -3.5615    0.0000 C   0  0  0  0  0  0  0  0  0  0  0  0
    5.7074    1.0637    0.0000 C   0  0  0  0  0  0  0  0  0  0  0  0
    4.3211   -1.8667    0.0000 C   0  0  0  0  0  0  0  0  0  0  0  0
    3.7320   -3.8663    0.0000 C   0  0  0  0  0  0  0  0  0  0  0  0
    6.2980    1.8707    0.0000 C   0  0  0  0  0  0  0  0  0  0  0  0
    5.2619   -4.3663    0.0000 C   0  0  0  0  0  0  0  0  0  0  0  0
    3.7320   -4.8663    0.0000 C   0  0  0  0  0  0  0  0  0  0  0  0
    5.8944    2.7856    0.0000 C   0  0  0  0  0  0  0  0  0  0  0  0
    2.8660   -3.3663    0.0000 C   0  0  0  0  0  0  0  0  0  0  0  0
    4.9889   -6.1215    0.0000 C   0  0  0  0  0  0  0  0  0  0  0  0
    6.4850    3.5926    0.0000 C   0  0  0  0  0  0  0  0  0  0  0  0
    4.9003    2.8936    0.0000 C   0  0  0  0  0  0  0  0  0  0  0  0
    6.0815    4.5076    0.0000 C   0  0  0  0  0  0  0  0  0  0  0  0
    2.0000   -4.8663    0.0000 C   0  0  0  0  0  0  0  0  0  0  0  0
    4.4967    3.8086    0.0000 C   0  0  0  0  0  0  0  0  0  0  0  0
    5.0873    4.6155    0.0000 C   0  0  0  0  0  0  0  0  0  0  0  0
    6.6720    5.3145    0.0000 C   0  0  0  0  0  0  0  0  0  0  0  0
    7.3776   -1.6388    0.0000 H   0  0  0  0  0  0  0  0  0  0  0  0
    7.7924   -0.9204    0.0000 H   0  0  0  0  0  0  0  0  0  0  0  0
    7.7028   -0.0613    0.0000 H   0  0  0  0  0  0  0  0  0  0  0  0
    7.1489    0.5560    0.0000 H   0  0  0  0  0  0  0  0  0  0  0  0
    6.3815   -2.8663    0.0000 H   0  0  0  0  0  0  0  0  0  0  0  0
    4.2177   -0.4547    0.0000 H   0  0  0  0  0  0  0  0  0  0  0  0
    3.7144   -1.9946    0.0000 H   0  0  0  0  0  0  0  0  0  0  0  0
    6.7272    1.4232    0.0000 H   0  0  0  0  0  0  0  0  0  0  0  0
    6.8132    2.2156    0.0000 H   0  0  0  0  0  0  0  0  0  0  0  0
    5.8819   -4.3663    0.0000 H   0  0  0  0  0  0  0  0  0  0  0  0
    4.3996   -6.3141    0.0000 H   0  0  0  0  0  0  0  0  0  0  0  0
    5.1815   -6.7108    0.0000 H   0  0  0  0  0  0  0  0  0  0  0  0
    5.5783   -5.9289    0.0000 H   0  0  0  0  0  0  0  0  0  0  0  0
    7.1014    3.5257    0.0000 H   0  0  0  0  0  0  0  0  0  0  0  0
    4.5341    2.3933    0.0000 H   0  0  0  0  0  0  0  0  0  0  0  0
    1.4631   -5.1763    0.0000 H   0  0  0  0  0  0  0  0  0  0  0  0
    3.8804    3.8755    0.0000 H   0  0  0  0  0  0  0  0  0  0  0  0
    2.3291   -2.0563    0.0000 H   0  0  0  0  0  0  0  0  0  0  0  0
    3.4030   -2.0563    0.0000 H   0  0  0  0  0  0  0  0  0  0  0  0
    4.8371    5.1828    0.0000 H   0  0  0  0  0  0  0  0  0  0  0  0
  1 33  1  0  0  0  0
  2 33  1  0  0  0  0
  3 33  1  0  0  0  0
  4 18  2  0  0  0  0
  5 12  1  0  0  0  0
  5 13  1  0  0  0  0
  5 18  1  0  0  0  0
  6 22  1  0  0  0  0
  6 23  1  0  0  0  0
  6 26  1  0  0  0  0
  7 23  2  0  0  0  0
  7 30  1  0  0  0  0
  8 25  1  0  0  0  0
  8 30  2  0  0  0  0
  9 25  1  0  0  0  0
  9 51  1  0  0  0  0
  9 52  1  0  0  0  0
 10 11  1  0  0  0  0
 10 12  1  0  0  0  0
 10 34  1  0  0  0  0
 10 35  1  0  0  0  0
 11 13  2  0  0  0  0
 11 14  1  0  0  0  0
 12 36  1  0  0  0  0
 12 37  1  0  0  0  0
 13 16  1  0  0  0  0
 14 15  2  0  0  0  0
 14 38  1  0  0  0  0
 15 17  1  0  0  0  0
 15 19  1  0  0  0  0
 16 19  2  0  0  0  0
 16 39  1  0  0  0  0
 17 20  1  0  0  0  0
 17 22  2  0  0  0  0
 18 21  1  0  0  0  0
 19 40  1  0  0  0  0
 20 23  1  0  0  0  0
 20 25  2  0  0  0  0
 21 24  1  0  0  0  0
 21 41  1  0  0  0  0
 21 42  1  0  0  0  0
 22 43  1  0  0  0  0
 24 27  2  0  0  0  0
 24 28  1  0  0  0  0
 26 44  1  0  0  0  0
 26 45  1  0  0  0  0
 26 46  1  0  0  0  0
 27 29  1  0  0  0  0
 27 47  1  0  0  0  0
 28 31  2  0  0  0  0
 28 48  1  0  0  0  0
 29 32  2  0  0  0  0
 29 33  1  0  0  0  0
 30 49  1  0  0  0  0
 31 32  1  0  0  0  0
 31 50  1  0  0  0  0
 32 53  1  0  0  0  0
M  END
> <PUBCHEM_COMPOUND_CID>
53469448

> <PUBCHEM_COMPOUND_CANONICALIZED>
1

> <PUBCHEM_CACTVS_COMPLEXITY>
721

> <PUBCHEM_CACTVS_HBOND_ACCEPTOR>
7

> <PUBCHEM_CACTVS_HBOND_DONOR>
1

> <PUBCHEM_CACTVS_ROTATABLE_BOND>
3

> <PUBCHEM_CACTVS_SUBSKEYS>
AAADceB7oYAAAAAAAAAAAAAAAAAAAWLAAAA8YIAAAAAAAFgB/AAAHwAQAAAADAjBmxQ/8N9MEACoAjd3dACCgCkxAqAJ2CEoZJiIKHLA3dGEJAhohgLIyCcYiMCOiAACAAACAAAQAAQAAAQAAAAAAAAAAA==

> <PUBCHEM_IUPAC_OPENEYE_NAME>
1-[5-(4-amino-7-methyl-pyrrolo[2,3-d]pyrimidin-5-yl)indolin-1-yl]-2-[3-(trifluoromethyl)phenyl]ethanone

> <PUBCHEM_IUPAC_CAS_NAME>
1-[5-(4-amino-7-methyl-5-pyrrolo[2,3-d]pyrimidinyl)-2,3-dihydroindol-1-yl]-2-[3-(trifluoromethyl)phenyl]ethanone

> <PUBCHEM_IUPAC_NAME_MARKUP>
1-[5-(4-amino-7-methylpyrrolo[2,3-d]pyrimidin-5-yl)-2,3-dihydroindol-1-yl]-2-[3-(trifluoromethyl)phenyl]ethanone

> <PUBCHEM_IUPAC_NAME>
1-[5-(4-amino-7-methylpyrrolo[2,3-d]pyrimidin-5-yl)-2,3-dihydroindol-1-yl]-2-[3-(trifluoromethyl)phenyl]ethanone

> <PUBCHEM_IUPAC_SYSTEMATIC_NAME>
1-[5-(4-azanyl-7-methyl-pyrrolo[2,3-d]pyrimidin-5-yl)-2,3-dihydroindol-1-yl]-2-[3-(trifluoromethyl)phenyl]ethanone

> <PUBCHEM_IUPAC_TRADITIONAL_NAME>
1-[5-(4-amino-7-methyl-pyrrolo[2,3-d]pyrimidin-5-yl)indolin-1-yl]-2-[3-(trifluoromethyl)phenyl]ethanone

> <PUBCHEM_IUPAC_INCHI>
InChI=1S/C24H20F3N5O/c1-31-12-18(21-22(28)29-13-30-23(21)31)15-5-6-19-16(11-15)7-8-32(19)20(33)10-14-3-2-4-17(9-14)24(25,26)27/h2-6,9,11-13H,7-8,10H2,1H3,(H2,28,29,30)

> <PUBCHEM_IUPAC_INCHIKEY>
SIXVRXARNAVBTC-UHFFFAOYSA-N

> <PUBCHEM_XLOGP3_AA>
3.8

> <PUBCHEM_EXACT_MASS>
451.16199476

> <PUBCHEM_MOLECULAR_FORMULA>
C24H20F3N5O

> <PUBCHEM_MOLECULAR_WEIGHT>
451.4

> <PUBCHEM_SMILES>
CN1C=C(C2=C(N=CN=C21)N)C3=CC4=C(C=C3)N(CC4)C(=O)CC5=CC(=CC=C5)C(F)(F)F

> <PUBCHEM_OPENEYE_CAN_SMILES>
CN1C=C(C2=C(N=CN=C21)N)C3=CC4=C(C=C3)N(CC4)C(=O)CC5=CC(=CC=C5)C(F)(F)F

> <PUBCHEM_OPENEYE_ISO_SMILES>
CN1C=C(C2=C(N=CN=C21)N)C3=CC4=C(C=C3)N(CC4)C(=O)CC5=CC(=CC=C5)C(F)(F)F

> <PUBCHEM_CACTVS_TPSA>
77

> <PUBCHEM_MONOISOTOPIC_WEIGHT>
451.16199476

> <PUBCHEM_TOTAL_CHARGE>
0

> <PUBCHEM_HEAVY_ATOM_COUNT>
33

> <PUBCHEM_ATOM_DEF_STEREO_COUNT>
0

> <PUBCHEM_ATOM_UDEF_STEREO_COUNT>
0

> <PUBCHEM_BOND_DEF_STEREO_COUNT>
0

> <PUBCHEM_BOND_UDEF_STEREO_COUNT>
0

> <PUBCHEM_ISOTOPIC_ATOM_COUNT>
0

> <PUBCHEM_COMPONENT_COUNT>
1

> <PUBCHEM_CACTVS_TAUTO_COUNT>
-1

> <PUBCHEM_COORDINATE_TYPE>
1
5
255

> <PUBCHEM_BONDANNOTATIONS>
11  13  8
11  14  8
13  16  8
14  15  8
15  19  8
16  19  8
17  20  8
17  22  8
20  23  8
20  25  8
24  27  8
24  28  8
27  29  8
28  31  8
29  32  8
31  32  8
6  22  8
6  23  8
7  23  8
7  30  8
8  25  8
8  30  8

$$$$
