9977114
  -OEChem-03202504142D

 40 42  0     1  0  0  0  0  0999 V2000
    5.1650    1.0839    0.0000 Br  0  0  0  0  0  0  0  0  0  0  0  0
    8.6454    2.1185    0.0000 O   0  0  0  0  0  0  0  0  0  0  0  0
   11.2951    0.6114    0.0000 O   0  0  0  0  0  0  0  0  0  0  0  0
   10.4233    2.1081    0.0000 O   0  0  0  0  0  0  0  0  0  0  0  0
    5.1650   -0.9161    0.0000 N   0  0  3  0  0  0  0  0  0  0  0  0
    2.5878   -1.1480    0.0000 N   0  0  0  0  0  0  0  0  0  0  0  0
    6.8970   -0.9161    0.0000 N   0  0  0  0  0  0  0  0  0  0  0  0
    8.6570   -0.9507    0.0000 N   0  0  0  0  0  0  0  0  0  0  0  0
    3.5823   -1.2525    0.0000 C   0  0  3  0  0  0  0  0  0  0  0  0
    4.0823   -2.1185    0.0000 C   0  0  0  0  0  0  0  0  0  0  0  0
    4.2514   -0.5093    0.0000 C   0  0  0  0  0  0  0  0  0  0  0  0
    5.0604   -1.9106    0.0000 C   0  0  0  0  0  0  0  0  0  0  0  0
    6.0310   -0.4161    0.0000 C   0  0  0  0  0  0  0  0  0  0  0  0
    6.0310    0.5839    0.0000 C   0  0  0  0  0  0  0  0  0  0  0  0
    2.0000   -1.9570    0.0000 C   0  0  0  0  0  0  0  0  0  0  0  0
    6.8970    1.0839    0.0000 C   0  0  0  0  0  0  0  0  0  0  0  0
    7.7631    0.5839    0.0000 C   0  0  0  0  0  0  0  0  0  0  0  0
    7.7631   -0.4161    0.0000 C   0  0  0  0  0  0  0  0  0  0  0  0
    8.6570    1.1186    0.0000 C   0  0  0  0  0  0  0  0  0  0  0  0
    6.8970    2.0839    0.0000 C   0  0  0  0  0  0  0  0  0  0  0  0
    9.5631    0.6047    0.0000 C   0  0  0  0  0  0  0  0  0  0  0  0
    9.5631   -0.4369    0.0000 C   0  0  0  0  0  0  0  0  0  0  0  0
   10.4272    1.1081    0.0000 C   0  0  0  0  0  0  0  0  0  0  0  0
    3.2446   -1.7725    0.0000 H   0  0  0  0  0  0  0  0  0  0  0  0
    3.5159   -2.3707    0.0000 H   0  0  0  0  0  0  0  0  0  0  0  0
    4.2739   -2.7082    0.0000 H   0  0  0  0  0  0  0  0  0  0  0  0
    4.5614    0.0276    0.0000 H   0  0  0  0  0  0  0  0  0  0  0  0
    3.7498   -0.1449    0.0000 H   0  0  0  0  0  0  0  0  0  0  0  0
    5.1253   -2.5272    0.0000 H   0  0  0  0  0  0  0  0  0  0  0  0
    5.6805   -1.9106    0.0000 H   0  0  0  0  0  0  0  0  0  0  0  0
    2.3356   -0.5816    0.0000 H   0  0  0  0  0  0  0  0  0  0  0  0
    1.4984   -1.5926    0.0000 H   0  0  0  0  0  0  0  0  0  0  0  0
    1.6356   -2.4586    0.0000 H   0  0  0  0  0  0  0  0  0  0  0  0
    2.5016   -2.3214    0.0000 H   0  0  0  0  0  0  0  0  0  0  0  0
    7.5170    2.0839    0.0000 H   0  0  0  0  0  0  0  0  0  0  0  0
    6.8970    2.7039    0.0000 H   0  0  0  0  0  0  0  0  0  0  0  0
    6.2770    2.0839    0.0000 H   0  0  0  0  0  0  0  0  0  0  0  0
    8.6498   -1.5707    0.0000 H   0  0  0  0  0  0  0  0  0  0  0  0
   10.0988   -0.7490    0.0000 H   0  0  0  0  0  0  0  0  0  0  0  0
   11.8308    0.9235    0.0000 H   0  0  0  0  0  0  0  0  0  0  0  0
  1 14  1  0  0  0  0
  2 19  2  0  0  0  0
  3 23  1  0  0  0  0
  3 40  1  0  0  0  0
  4 23  2  0  0  0  0
  5 11  1  0  0  0  0
  5 12  1  0  0  0  0
  5 13  1  0  0  0  0
  6  9  1  0  0  0  0
  6 15  1  0  0  0  0
  6 31  1  0  0  0  0
  7 13  1  0  0  0  0
  7 18  2  0  0  0  0
  8 18  1  0  0  0  0
  8 22  1  0  0  0  0
  8 38  1  0  0  0  0
  9 10  1  0  0  0  0
  9 11  1  0  0  0  0
  9 24  1  0  0  0  0
 10 12  1  0  0  0  0
 10 25  1  0  0  0  0
 10 26  1  0  0  0  0
 11 27  1  0  0  0  0
 11 28  1  0  0  0  0
 12 29  1  0  0  0  0
 12 30  1  0  0  0  0
 13 14  2  0  0  0  0
 14 16  1  0  0  0  0
 15 32  1  0  0  0  0
 15 33  1  0  0  0  0
 15 34  1  0  0  0  0
 16 17  2  0  0  0  0
 16 20  1  0  0  0  0
 17 18  1  0  0  0  0
 17 19  1  0  0  0  0
 19 21  1  0  0  0  0
 20 35  1  0  0  0  0
 20 36  1  0  0  0  0
 20 37  1  0  0  0  0
 21 22  2  0  0  0  0
 21 23  1  0  0  0  0
 22 39  1  0  0  0  0
M  END
> <PUBCHEM_COMPOUND_CID>
9977114

> <PUBCHEM_COMPOUND_CANONICALIZED>
1

> <PUBCHEM_CACTVS_COMPLEXITY>
541

> <PUBCHEM_CACTVS_HBOND_ACCEPTOR>
7

> <PUBCHEM_CACTVS_HBOND_DONOR>
3

> <PUBCHEM_CACTVS_ROTATABLE_BOND>
3

> <PUBCHEM_CACTVS_SUBSKEYS>
AAADceBzsAAAEAAAAAAAAAAAAAAAAWAAAAAsQAAAAAAAAACBgAAAHgBQCAABrCzBmgQDuJPIEgCoAoL2bACCgCklACQBmKEoRPiIZH7I3JGUYYhssALI2/eY2TKOgAAAAAAAAAAAAAAAAAAAAAAAAAAAAA==

> <PUBCHEM_IUPAC_OPENEYE_NAME>
6-bromo-5-methyl-7-[3-(methylamino)pyrrolidin-1-yl]-4-oxo-1H-1,8-naphthyridine-3-carboxylic acid

> <PUBCHEM_IUPAC_CAS_NAME>
6-bromo-5-methyl-7-[3-(methylamino)-1-pyrrolidinyl]-4-oxo-1H-1,8-naphthyridine-3-carboxylic acid

> <PUBCHEM_IUPAC_NAME_MARKUP>
6-bromo-5-methyl-7-[3-(methylamino)pyrrolidin-1-yl]-4-oxo-1<I>H</I>-1,8-naphthyridine-3-carboxylic acid

> <PUBCHEM_IUPAC_NAME>
6-bromo-5-methyl-7-[3-(methylamino)pyrrolidin-1-yl]-4-oxo-1H-1,8-naphthyridine-3-carboxylic acid

> <PUBCHEM_IUPAC_SYSTEMATIC_NAME>
6-bromanyl-5-methyl-7-[3-(methylamino)pyrrolidin-1-yl]-4-oxidanylidene-1H-1,8-naphthyridine-3-carboxylic acid

> <PUBCHEM_IUPAC_TRADITIONAL_NAME>
6-bromo-4-keto-5-methyl-7-[3-(methylamino)pyrrolidino]-1H-1,8-naphthyridine-3-carboxylic acid

> <PUBCHEM_IUPAC_INCHI>
InChI=1S/C15H17BrN4O3/c1-7-10-12(21)9(15(22)23)5-18-13(10)19-14(11(7)16)20-4-3-8(6-20)17-2/h5,8,17H,3-4,6H2,1-2H3,(H,22,23)(H,18,19,21)

> <PUBCHEM_IUPAC_INCHIKEY>
DYAKPPODIHJSHS-UHFFFAOYSA-N

> <PUBCHEM_XLOGP3_AA>
0.1

> <PUBCHEM_EXACT_MASS>
380.04840

> <PUBCHEM_MOLECULAR_FORMULA>
C15H17BrN4O3

> <PUBCHEM_MOLECULAR_WEIGHT>
381.22

> <PUBCHEM_SMILES>
CC1=C2C(=O)C(=CNC2=NC(=C1Br)N3CCC(C3)NC)C(=O)O

> <PUBCHEM_OPENEYE_CAN_SMILES>
CC1=C2C(=O)C(=CNC2=NC(=C1Br)N3CCC(C3)NC)C(=O)O

> <PUBCHEM_OPENEYE_ISO_SMILES>
CC1=C2C(=O)C(=CNC2=NC(=C1Br)N3CCC(C3)NC)C(=O)O

> <PUBCHEM_CACTVS_TPSA>
94.6

> <PUBCHEM_MONOISOTOPIC_WEIGHT>
380.04840

> <PUBCHEM_TOTAL_CHARGE>
0

> <PUBCHEM_HEAVY_ATOM_COUNT>
23

> <PUBCHEM_ATOM_DEF_STEREO_COUNT>
0

> <PUBCHEM_ATOM_UDEF_STEREO_COUNT>
1

> <PUBCHEM_BOND_DEF_STEREO_COUNT>
0

> <PUBCHEM_BOND_UDEF_STEREO_COUNT>
0

> <PUBCHEM_ISOTOPIC_ATOM_COUNT>
0

> <PUBCHEM_COMPONENT_COUNT>
1

> <PUBCHEM_CACTVS_TAUTO_COUNT>
-1

> <PUBCHEM_COORDINATE_TYPE>
1
5
255

> <PUBCHEM_BONDANNOTATIONS>
13  14  8
14  16  8
16  17  8
17  18  8
17  19  8
19  21  8
21  22  8
9  6  3
7  13  8
7  18  8
8  18  8
8  22  8

$$$$
