44378557
  -OEChem-03202506142D

190191  0     1  0  0  0  0  0999 V2000
    5.0347   -3.7500    0.0000 S   0  0  0  0  0  0  0  0  0  0  0  0
   12.6994    3.2500    0.0000 O   0  0  0  0  0  0  0  0  0  0  0  0
   15.4315    0.7500    0.0000 O   0  0  0  0  0  0  0  0  0  0  0  0
    9.9674    0.7500    0.0000 O   0  0  0  0  0  0  0  0  0  0  0  0
   14.9629   -6.2500    0.0000 O   0  0  0  0  0  0  0  0  0  0  0  0
    7.2353    3.2500    0.0000 O   0  0  0  0  0  0  0  0  0  0  0  0
   12.2308   -3.7500    0.0000 O   0  0  0  0  0  0  0  0  0  0  0  0
    3.6372    2.2500    0.0000 O   0  0  0  0  0  0  0  0  0  0  0  0
   12.2308   -6.7500    0.0000 O   0  0  0  0  0  0  0  0  0  0  0  0
    4.5033    0.7500    0.0000 O   0  0  0  0  0  0  0  0  0  0  0  0
    9.4988   -6.2500    0.0000 O   0  0  0  0  0  0  0  0  0  0  0  0
    6.7667   -3.7500    0.0000 O   0  0  0  0  0  0  0  0  0  0  0  0
    5.0347   -2.7500    0.0000 O   0  0  0  0  0  0  0  0  0  0  0  0
    6.0347   -3.7500    0.0000 O   0  0  0  0  0  0  0  0  0  0  0  0
   14.4315    2.2500    0.0000 N   0  0  0  0  0  0  0  0  0  0  0  0
   11.6994    1.7500    0.0000 N   0  0  0  0  0  0  0  0  0  0  0  0
   17.1635    1.7500    0.0000 N   0  0  0  0  0  0  0  0  0  0  0  0
    8.9674    2.2500    0.0000 N   0  0  0  0  0  0  0  0  0  0  0  0
   13.2308   -5.2500    0.0000 N   0  0  0  0  0  0  0  0  0  0  0  0
    6.2353    1.7500    0.0000 N   0  0  0  0  0  0  0  0  0  0  0  0
   15.2975   -1.2500    0.0000 N   0  0  0  0  0  0  0  0  0  0  0  0
    9.1013    5.2500    0.0000 N   0  0  0  0  0  0  0  0  0  0  0  0
   10.4988   -4.7500    0.0000 N   0  0  0  0  0  0  0  0  0  0  0  0
   18.0295    5.2500    0.0000 N   0  0  0  0  0  0  0  0  0  0  0  0
    8.7353   -0.6160    0.0000 N   0  0  0  0  0  0  0  0  0  0  0  0
   16.6949   -3.2500    0.0000 N   0  0  0  0  0  0  0  0  0  0  0  0
    7.7667   -5.2500    0.0000 N   0  0  0  0  0  0  0  0  0  0  0  0
    3.6372    5.2500    0.0000 N   0  0  0  0  0  0  0  0  0  0  0  0
   17.0295   -1.2500    0.0000 N   0  0  0  0  0  0  0  0  0  0  0  0
   16.8063    0.0160    0.0000 N   0  0  0  0  0  0  0  0  0  0  0  0
    5.0347   -4.7500    0.0000 N   0  0  0  0  0  0  0  0  0  0  0  0
    8.2353    6.7500    0.0000 N   0  0  0  0  0  0  0  0  0  0  0  0
    9.9674    6.7500    0.0000 N   0  0  0  0  0  0  0  0  0  0  0  0
   18.8956    6.7500    0.0000 N   0  0  0  0  0  0  0  0  0  0  0  0
   17.1635    6.7500    0.0000 N   0  0  0  0  0  0  0  0  0  0  0  0
   10.2353   -1.4820    0.0000 N   0  0  0  0  0  0  0  0  0  0  0  0
    8.7354   -2.3480    0.0000 N   0  0  0  0  0  0  0  0  0  0  0  0
   18.4270   -3.2500    0.0000 N   0  0  0  0  0  0  0  0  0  0  0  0
   17.5609   -4.7500    0.0000 N   0  0  0  0  0  0  0  0  0  0  0  0
    2.7712    6.7500    0.0000 N   0  0  0  0  0  0  0  0  0  0  0  0
    4.5033    6.7500    0.0000 N   0  0  0  0  0  0  0  0  0  0  0  0
    2.5138   -1.0840    0.0000 N   0  0  0  0  0  0  0  0  0  0  0  0
   13.5654    1.7500    0.0000 C   0  0  1  0  0  0  0  0  0  0  0  0
   10.8334    2.2500    0.0000 C   0  0  1  0  0  0  0  0  0  0  0  0
   16.2975    2.2500    0.0000 C   0  0  1  0  0  0  0  0  0  0  0  0
   13.5654    0.7500    0.0000 C   0  0  0  0  0  0  0  0  0  0  0  0
   10.8334    3.2500    0.0000 C   0  0  0  0  0  0  0  0  0  0  0  0
   16.2975    3.2500    0.0000 C   0  0  0  0  0  0  0  0  0  0  0  0
   12.6994    2.2500    0.0000 C   0  0  0  0  0  0  0  0  0  0  0  0
    8.1013    1.7500    0.0000 C   0  0  1  0  0  0  0  0  0  0  0  0
   15.4315    1.7500    0.0000 C   0  0  0  0  0  0  0  0  0  0  0  0
   14.0968   -4.7500    0.0000 C   0  0  1  0  0  0  0  0  0  0  0  0
   14.4315    0.2500    0.0000 C   0  0  0  0  0  0  0  0  0  0  0  0
    9.9674    1.7500    0.0000 C   0  0  0  0  0  0  0  0  0  0  0  0
    8.1013    0.7500    0.0000 C   0  0  0  0  0  0  0  0  0  0  0  0
    9.9674    3.7500    0.0000 C   0  0  0  0  0  0  0  0  0  0  0  0
   17.1635    3.7500    0.0000 C   0  0  0  0  0  0  0  0  0  0  0  0
   14.0968   -3.7500    0.0000 C   0  0  0  0  0  0  0  0  0  0  0  0
   14.9629   -5.2500    0.0000 C   0  0  0  0  0  0  0  0  0  0  0  0
    7.2353    0.2500    0.0000 C   0  0  0  0  0  0  0  0  0  0  0  0
    7.2353    2.2500    0.0000 C   0  0  0  0  0  0  0  0  0  0  0  0
   14.9629   -3.2500    0.0000 C   0  0  0  0  0  0  0  0  0  0  0  0
   14.4315   -0.7500    0.0000 C   0  0  0  0  0  0  0  0  0  0  0  0
    9.9674    4.7500    0.0000 C   0  0  0  0  0  0  0  0  0  0  0  0
   17.1635    4.7500    0.0000 C   0  0  0  0  0  0  0  0  0  0  0  0
    5.3693    2.2500    0.0000 C   0  0  1  0  0  0  0  0  0  0  0  0
    5.3693    3.2500    0.0000 C   0  0  0  0  0  0  0  0  0  0  0  0
    7.7354   -0.6160    0.0000 C   0  0  0  0  0  0  0  0  0  0  0  0
   12.2308   -4.7500    0.0000 C   0  0  0  0  0  0  0  0  0  0  0  0
   11.3648   -5.2500    0.0000 C   0  0  2  0  0  0  0  0  0  0  0  0
   15.8289   -3.7500    0.0000 C   0  0  0  0  0  0  0  0  0  0  0  0
    4.5033    3.7500    0.0000 C   0  0  0  0  0  0  0  0  0  0  0  0
    4.5033    1.7500    0.0000 C   0  0  0  0  0  0  0  0  0  0  0  0
   11.3648   -6.2500    0.0000 C   0  0  0  0  0  0  0  0  0  0  0  0
    4.5033    4.7500    0.0000 C   0  0  0  0  0  0  0  0  0  0  0  0
    9.4988   -5.2500    0.0000 C   0  0  0  0  0  0  0  0  0  0  0  0
    8.6327   -4.7500    0.0000 C   0  0  2  0  0  0  0  0  0  0  0  0
   16.1635   -0.7500    0.0000 C   0  0  0  0  0  0  0  0  0  0  0  0
    9.1013    6.2500    0.0000 C   0  0  0  0  0  0  0  0  0  0  0  0
   18.0295    6.2500    0.0000 C   0  0  0  0  0  0  0  0  0  0  0  0
    8.6327   -3.7500    0.0000 C   0  0  0  0  0  0  0  0  0  0  0  0
    9.2353   -1.4820    0.0000 C   0  0  0  0  0  0  0  0  0  0  0  0
   17.5609   -3.7500    0.0000 C   0  0  0  0  0  0  0  0  0  0  0  0
    5.9007   -5.2500    0.0000 C   0  0  2  0  0  0  0  0  0  0  0  0
    6.7667   -4.7500    0.0000 C   0  0  0  0  0  0  0  0  0  0  0  0
    5.9007   -6.2500    0.0000 C   0  0  0  0  0  0  0  0  0  0  0  0
    3.6372    6.2500    0.0000 C   0  0  0  0  0  0  0  0  0  0  0  0
    4.0347   -3.7500    0.0000 C   0  0  0  0  0  0  0  0  0  0  0  0
    3.5347   -2.8840    0.0000 C   0  0  0  0  0  0  0  0  0  0  0  0
    3.5347   -4.6160    0.0000 C   0  0  0  0  0  0  0  0  0  0  0  0
    2.5347   -2.8840    0.0000 C   0  0  0  0  0  0  0  0  0  0  0  0
    2.5347   -4.6160    0.0000 C   0  0  0  0  0  0  0  0  0  0  0  0
    2.0347   -3.7500    0.0000 C   0  0  0  0  0  0  0  0  0  0  0  0
    4.0693   -1.9900    0.0000 C   0  0  0  0  0  0  0  0  0  0  0  0
    2.0000   -1.9900    0.0000 C   0  0  0  0  0  0  0  0  0  0  0  0
    3.5555   -1.0840    0.0000 C   0  0  0  0  0  0  0  0  0  0  0  0
   14.1024    1.4400    0.0000 H   0  0  0  0  0  0  0  0  0  0  0  0
   11.3703    2.5600    0.0000 H   0  0  0  0  0  0  0  0  0  0  0  0
   16.2975    1.6300    0.0000 H   0  0  0  0  0  0  0  0  0  0  0  0
   12.9548    0.8577    0.0000 H   0  0  0  0  0  0  0  0  0  0  0  0
   13.3534    0.1674    0.0000 H   0  0  0  0  0  0  0  0  0  0  0  0
   11.4440    3.1423    0.0000 H   0  0  0  0  0  0  0  0  0  0  0  0
   11.0454    3.8326    0.0000 H   0  0  0  0  0  0  0  0  0  0  0  0
   16.0854    3.8326    0.0000 H   0  0  0  0  0  0  0  0  0  0  0  0
   15.6869    3.1423    0.0000 H   0  0  0  0  0  0  0  0  0  0  0  0
    8.6383    1.4400    0.0000 H   0  0  0  0  0  0  0  0  0  0  0  0
   14.9684    2.5600    0.0000 H   0  0  0  0  0  0  0  0  0  0  0  0
   12.2363    1.4400    0.0000 H   0  0  0  0  0  0  0  0  0  0  0  0
   13.5599   -4.4400    0.0000 H   0  0  0  0  0  0  0  0  0  0  0  0
   15.0420    0.1423    0.0000 H   0  0  0  0  0  0  0  0  0  0  0  0
   14.6435    0.8326    0.0000 H   0  0  0  0  0  0  0  0  0  0  0  0
   17.7004    1.4400    0.0000 H   0  0  0  0  0  0  0  0  0  0  0  0
    8.3134    0.1674    0.0000 H   0  0  0  0  0  0  0  0  0  0  0  0
    8.7119    0.8577    0.0000 H   0  0  0  0  0  0  0  0  0  0  0  0
    9.3568    3.8577    0.0000 H   0  0  0  0  0  0  0  0  0  0  0  0
    9.7553    3.1674    0.0000 H   0  0  0  0  0  0  0  0  0  0  0  0
   17.3756    3.1674    0.0000 H   0  0  0  0  0  0  0  0  0  0  0  0
   17.7741    3.8577    0.0000 H   0  0  0  0  0  0  0  0  0  0  0  0
    9.5043    2.5600    0.0000 H   0  0  0  0  0  0  0  0  0  0  0  0
   13.8848   -3.1674    0.0000 H   0  0  0  0  0  0  0  0  0  0  0  0
   13.4863   -3.8577    0.0000 H   0  0  0  0  0  0  0  0  0  0  0  0
    6.9253    0.7869    0.0000 H   0  0  0  0  0  0  0  0  0  0  0  0
    6.6984   -0.0600    0.0000 H   0  0  0  0  0  0  0  0  0  0  0  0
   15.3614   -2.7750    0.0000 H   0  0  0  0  0  0  0  0  0  0  0  0
   14.5643   -2.7750    0.0000 H   0  0  0  0  0  0  0  0  0  0  0  0
   13.8209   -0.6423    0.0000 H   0  0  0  0  0  0  0  0  0  0  0  0
   14.2194   -1.3326    0.0000 H   0  0  0  0  0  0  0  0  0  0  0  0
   13.7677   -5.5600    0.0000 H   0  0  0  0  0  0  0  0  0  0  0  0
   10.5779    4.6423    0.0000 H   0  0  0  0  0  0  0  0  0  0  0  0
   10.1794    5.3326    0.0000 H   0  0  0  0  0  0  0  0  0  0  0  0
   16.9515    5.3326    0.0000 H   0  0  0  0  0  0  0  0  0  0  0  0
   16.5529    4.6423    0.0000 H   0  0  0  0  0  0  0  0  0  0  0  0
    5.9062    2.5600    0.0000 H   0  0  0  0  0  0  0  0  0  0  0  0
    6.7722    1.4400    0.0000 H   0  0  0  0  0  0  0  0  0  0  0  0
    5.9799    3.1423    0.0000 H   0  0  0  0  0  0  0  0  0  0  0  0
    5.5813    3.8326    0.0000 H   0  0  0  0  0  0  0  0  0  0  0  0
    7.1528   -0.8281    0.0000 H   0  0  0  0  0  0  0  0  0  0  0  0
    7.8430   -1.2266    0.0000 H   0  0  0  0  0  0  0  0  0  0  0  0
   11.3648   -4.6300    0.0000 H   0  0  0  0  0  0  0  0  0  0  0  0
   15.4304   -4.2250    0.0000 H   0  0  0  0  0  0  0  0  0  0  0  0
   16.2274   -4.2250    0.0000 H   0  0  0  0  0  0  0  0  0  0  0  0
    3.8927    3.8577    0.0000 H   0  0  0  0  0  0  0  0  0  0  0  0
    4.2912    3.1674    0.0000 H   0  0  0  0  0  0  0  0  0  0  0  0
   10.7542   -6.1423    0.0000 H   0  0  0  0  0  0  0  0  0  0  0  0
   11.1527   -6.8326    0.0000 H   0  0  0  0  0  0  0  0  0  0  0  0
   11.0357   -4.4400    0.0000 H   0  0  0  0  0  0  0  0  0  0  0  0
    5.1138    4.6423    0.0000 H   0  0  0  0  0  0  0  0  0  0  0  0
    4.7153    5.3326    0.0000 H   0  0  0  0  0  0  0  0  0  0  0  0
    8.0958   -4.4400    0.0000 H   0  0  0  0  0  0  0  0  0  0  0  0
    8.3036   -5.5600    0.0000 H   0  0  0  0  0  0  0  0  0  0  0  0
    9.2527   -3.7500    0.0000 H   0  0  0  0  0  0  0  0  0  0  0  0
    8.6327   -3.1300    0.0000 H   0  0  0  0  0  0  0  0  0  0  0  0
    8.0127   -3.7500    0.0000 H   0  0  0  0  0  0  0  0  0  0  0  0
    3.1003    1.9400    0.0000 H   0  0  0  0  0  0  0  0  0  0  0  0
   12.2308   -7.3700    0.0000 H   0  0  0  0  0  0  0  0  0  0  0  0
    5.9007   -4.6300    0.0000 H   0  0  0  0  0  0  0  0  0  0  0  0
   17.5665   -0.9400    0.0000 H   0  0  0  0  0  0  0  0  0  0  0  0
   17.0295   -1.8700    0.0000 H   0  0  0  0  0  0  0  0  0  0  0  0
   17.4169   -0.0916    0.0000 H   0  0  0  0  0  0  0  0  0  0  0  0
   16.5942    0.5987    0.0000 H   0  0  0  0  0  0  0  0  0  0  0  0
    5.5716   -5.0600    0.0000 H   0  0  0  0  0  0  0  0  0  0  0  0
    8.2353    7.3700    0.0000 H   0  0  0  0  0  0  0  0  0  0  0  0
    7.6984    6.4400    0.0000 H   0  0  0  0  0  0  0  0  0  0  0  0
    9.9674    7.3700    0.0000 H   0  0  0  0  0  0  0  0  0  0  0  0
   10.5043    6.4400    0.0000 H   0  0  0  0  0  0  0  0  0  0  0  0
   18.8956    7.3700    0.0000 H   0  0  0  0  0  0  0  0  0  0  0  0
   19.4325    6.4400    0.0000 H   0  0  0  0  0  0  0  0  0  0  0  0
   17.1635    7.3700    0.0000 H   0  0  0  0  0  0  0  0  0  0  0  0
   16.6266    6.4400    0.0000 H   0  0  0  0  0  0  0  0  0  0  0  0
    5.2807   -6.2500    0.0000 H   0  0  0  0  0  0  0  0  0  0  0  0
    5.9007   -6.8700    0.0000 H   0  0  0  0  0  0  0  0  0  0  0  0
    6.5207   -6.2500    0.0000 H   0  0  0  0  0  0  0  0  0  0  0  0
   10.5453   -0.9451    0.0000 H   0  0  0  0  0  0  0  0  0  0  0  0
   10.5453   -2.0190    0.0000 H   0  0  0  0  0  0  0  0  0  0  0  0
    9.0454   -2.8850    0.0000 H   0  0  0  0  0  0  0  0  0  0  0  0
    8.1154   -2.3481    0.0000 H   0  0  0  0  0  0  0  0  0  0  0  0
   18.9639   -3.5600    0.0000 H   0  0  0  0  0  0  0  0  0  0  0  0
   18.4270   -2.6300    0.0000 H   0  0  0  0  0  0  0  0  0  0  0  0
   18.0979   -5.0600    0.0000 H   0  0  0  0  0  0  0  0  0  0  0  0
   17.0240   -5.0600    0.0000 H   0  0  0  0  0  0  0  0  0  0  0  0
    3.8447   -5.1530    0.0000 H   0  0  0  0  0  0  0  0  0  0  0  0
    2.7712    7.3700    0.0000 H   0  0  0  0  0  0  0  0  0  0  0  0
    2.2343    6.4400    0.0000 H   0  0  0  0  0  0  0  0  0  0  0  0
    4.5033    7.3700    0.0000 H   0  0  0  0  0  0  0  0  0  0  0  0
    5.0402    6.4400    0.0000 H   0  0  0  0  0  0  0  0  0  0  0  0
    2.2247   -5.1530    0.0000 H   0  0  0  0  0  0  0  0  0  0  0  0
    1.4147   -3.7500    0.0000 H   0  0  0  0  0  0  0  0  0  0  0  0
    4.6893   -1.9972    0.0000 H   0  0  0  0  0  0  0  0  0  0  0  0
    1.3800   -1.9972    0.0000 H   0  0  0  0  0  0  0  0  0  0  0  0
    3.8675   -0.5482    0.0000 H   0  0  0  0  0  0  0  0  0  0  0  0
  1 13  2  0  0  0  0
  1 14  2  0  0  0  0
  1 31  1  0  0  0  0
  1 88  1  0  0  0  0
  2 49  2  0  0  0  0
  3 51  2  0  0  0  0
  4 54  2  0  0  0  0
  5 59  2  0  0  0  0
  6 61  2  0  0  0  0
  7 69  2  0  0  0  0
  8 73  1  0  0  0  0
  8154  1  0  0  0  0
  9 74  1  0  0  0  0
  9155  1  0  0  0  0
 10 73  2  0  0  0  0
 11 76  2  0  0  0  0
 12 85  2  0  0  0  0
 43 15  1  1  0  0  0
 15 51  1  0  0  0  0
 15107  1  0  0  0  0
 44 16  1  6  0  0  0
 16 49  1  0  0  0  0
 16108  1  0  0  0  0
 45 17  1  6  0  0  0
 17 59  1  0  0  0  0
 17112  1  0  0  0  0
 50 18  1  1  0  0  0
 18 54  1  0  0  0  0
 18119  1  0  0  0  0
 52 19  1  1  0  0  0
 19 69  1  0  0  0  0
 19128  1  0  0  0  0
 20 61  1  0  0  0  0
 66 20  1  6  0  0  0
 20134  1  0  0  0  0
 21 63  1  0  0  0  0
 21 78  2  0  0  0  0
 22 64  1  0  0  0  0
 22 79  2  0  0  0  0
 70 23  1  6  0  0  0
 23 76  1  0  0  0  0
 23146  1  0  0  0  0
 24 65  1  0  0  0  0
 24 80  2  0  0  0  0
 25 68  1  0  0  0  0
 25 82  2  0  0  0  0
 26 71  1  0  0  0  0
 26 83  2  0  0  0  0
 77 27  1  1  0  0  0
 27 85  1  0  0  0  0
 27150  1  0  0  0  0
 28 75  1  0  0  0  0
 28 87  2  0  0  0  0
 29 78  1  0  0  0  0
 29157  1  0  0  0  0
 29158  1  0  0  0  0
 30 78  1  0  0  0  0
 30159  1  0  0  0  0
 30160  1  0  0  0  0
 84 31  1  6  0  0  0
 31161  1  0  0  0  0
 32 79  1  0  0  0  0
 32162  1  0  0  0  0
 32163  1  0  0  0  0
 33 79  1  0  0  0  0
 33164  1  0  0  0  0
 33165  1  0  0  0  0
 34 80  1  0  0  0  0
 34166  1  0  0  0  0
 34167  1  0  0  0  0
 35 80  1  0  0  0  0
 35168  1  0  0  0  0
 35169  1  0  0  0  0
 36 82  1  0  0  0  0
 36173  1  0  0  0  0
 36174  1  0  0  0  0
 37 82  1  0  0  0  0
 37175  1  0  0  0  0
 37176  1  0  0  0  0
 38 83  1  0  0  0  0
 38177  1  0  0  0  0
 38178  1  0  0  0  0
 39 83  1  0  0  0  0
 39179  1  0  0  0  0
 39180  1  0  0  0  0
 40 87  1  0  0  0  0
 40182  1  0  0  0  0
 40183  1  0  0  0  0
 41 87  1  0  0  0  0
 41184  1  0  0  0  0
 41185  1  0  0  0  0
 42 95  2  0  0  0  0
 42 96  1  0  0  0  0
 43 46  1  0  0  0  0
 43 49  1  0  0  0  0
 43 97  1  0  0  0  0
 44 47  1  0  0  0  0
 44 54  1  0  0  0  0
 44 98  1  0  0  0  0
 45 48  1  0  0  0  0
 45 51  1  0  0  0  0
 45 99  1  0  0  0  0
 46 53  1  0  0  0  0
 46100  1  0  0  0  0
 46101  1  0  0  0  0
 47 56  1  0  0  0  0
 47102  1  0  0  0  0
 47103  1  0  0  0  0
 48 57  1  0  0  0  0
 48104  1  0  0  0  0
 48105  1  0  0  0  0
 50 55  1  0  0  0  0
 50 61  1  0  0  0  0
 50106  1  0  0  0  0
 52 58  1  0  0  0  0
 52 59  1  0  0  0  0
 52109  1  0  0  0  0
 53 63  1  0  0  0  0
 53110  1  0  0  0  0
 53111  1  0  0  0  0
 55 60  1  0  0  0  0
 55113  1  0  0  0  0
 55114  1  0  0  0  0
 56 64  1  0  0  0  0
 56115  1  0  0  0  0
 56116  1  0  0  0  0
 57 65  1  0  0  0  0
 57117  1  0  0  0  0
 57118  1  0  0  0  0
 58 62  1  0  0  0  0
 58120  1  0  0  0  0
 58121  1  0  0  0  0
 60 68  1  0  0  0  0
 60122  1  0  0  0  0
 60123  1  0  0  0  0
 62 71  1  0  0  0  0
 62124  1  0  0  0  0
 62125  1  0  0  0  0
 63126  1  0  0  0  0
 63127  1  0  0  0  0
 64129  1  0  0  0  0
 64130  1  0  0  0  0
 65131  1  0  0  0  0
 65132  1  0  0  0  0
 66 67  1  0  0  0  0
 66 73  1  0  0  0  0
 66133  1  0  0  0  0
 67 72  1  0  0  0  0
 67135  1  0  0  0  0
 67136  1  0  0  0  0
 68137  1  0  0  0  0
 68138  1  0  0  0  0
 69 70  1  0  0  0  0
 70 74  1  0  0  0  0
 70139  1  0  0  0  0
 71140  1  0  0  0  0
 71141  1  0  0  0  0
 72 75  1  0  0  0  0
 72142  1  0  0  0  0
 72143  1  0  0  0  0
 74144  1  0  0  0  0
 74145  1  0  0  0  0
 75147  1  0  0  0  0
 75148  1  0  0  0  0
 76 77  1  0  0  0  0
 77 81  1  0  0  0  0
 77149  1  0  0  0  0
 81151  1  0  0  0  0
 81152  1  0  0  0  0
 81153  1  0  0  0  0
 84 85  1  0  0  0  0
 84 86  1  0  0  0  0
 84156  1  0  0  0  0
 86170  1  0  0  0  0
 86171  1  0  0  0  0
 86172  1  0  0  0  0
 88 89  1  0  0  0  0
 88 90  2  0  0  0  0
 89 91  2  0  0  0  0
 89 94  1  0  0  0  0
 90 92  1  0  0  0  0
 90181  1  0  0  0  0
 91 93  1  0  0  0  0
 91 95  1  0  0  0  0
 92 93  2  0  0  0  0
 92186  1  0  0  0  0
 93187  1  0  0  0  0
 94 96  2  0  0  0  0
 94188  1  0  0  0  0
 95189  1  0  0  0  0
 96190  1  0  0  0  0
M  END
> <PUBCHEM_COMPOUND_CID>
44378557

> <PUBCHEM_COMPOUND_CANONICALIZED>
1

> <PUBCHEM_CACTVS_COMPLEXITY>
2850

> <PUBCHEM_CACTVS_HBOND_ACCEPTOR>
21

> <PUBCHEM_CACTVS_HBOND_DONOR>
23

> <PUBCHEM_CACTVS_ROTATABLE_BOND>
45

> <PUBCHEM_CACTVS_SUBSKEYS>
AAADcfB//ABAAAAAAAAAAAAAAAAAAAAAAAA8QAAAAAAAAACx8AAAHgQQSAAADCjh2gY/idLIEgKoAjH3fHDCgDExAiAI2Lm4ZJgKcPbAkbGUYAhmtgDYyAeYkYAOgAAAgAAUAAAAAAEAACgAAAAAAAAAAA==

> <PUBCHEM_IUPAC_OPENEYE_NAME>
(2S)-5-guanidino-2-[[(2S)-5-guanidino-2-[[(2S)-5-guanidino-2-[[(2S)-5-guanidino-2-[[(2S)-5-guanidino-2-[[(2S)-5-guanidino-2-[[(2S)-3-hydroxy-2-[[(2S)-2-[[(2S)-2-(5-isoquinolylsulfonylamino)propanoyl]amino]propanoyl]amino]propanoyl]amino]pentanoyl]amino]pentanoyl]amino]pentanoyl]amino]pentanoyl]amino]pentanoyl]amino]pentanoic acid

> <PUBCHEM_IUPAC_CAS_NAME>
(2S)-5-(diaminomethylideneamino)-2-[[(2S)-5-(diaminomethylideneamino)-2-[[(2S)-5-(diaminomethylideneamino)-2-[[(2S)-5-(diaminomethylideneamino)-2-[[(2S)-5-(diaminomethylideneamino)-2-[[(2S)-5-(diaminomethylideneamino)-2-[[(2S)-3-hydroxy-2-[[(2S)-2-[[(2S)-2-(5-isoquinolinylsulfonylamino)-1-oxopropyl]amino]-1-oxopropyl]amino]-1-oxopropyl]amino]-1-oxopentyl]amino]-1-oxopentyl]amino]-1-oxopentyl]amino]-1-oxopentyl]amino]-1-oxopentyl]amino]pentanoic acid

> <PUBCHEM_IUPAC_NAME_MARKUP>
(2<I>S</I>)-5-(diaminomethylideneamino)-2-[[(2<I>S</I>)-5-(diaminomethylideneamino)-2-[[(2<I>S</I>)-5-(diaminomethylideneamino)-2-[[(2<I>S</I>)-5-(diaminomethylideneamino)-2-[[(2<I>S</I>)-5-(diaminomethylideneamino)-2-[[(2<I>S</I>)-5-(diaminomethylideneamino)-2-[[(2<I>S</I>)-3-hydroxy-2-[[(2<I>S</I>)-2-[[(2<I>S</I>)-2-(isoquinolin-5-ylsulfonylamino)propanoyl]amino]propanoyl]amino]propanoyl]amino]pentanoyl]amino]pentanoyl]amino]pentanoyl]amino]pentanoyl]amino]pentanoyl]amino]pentanoic acid

> <PUBCHEM_IUPAC_NAME>
(2S)-5-(diaminomethylideneamino)-2-[[(2S)-5-(diaminomethylideneamino)-2-[[(2S)-5-(diaminomethylideneamino)-2-[[(2S)-5-(diaminomethylideneamino)-2-[[(2S)-5-(diaminomethylideneamino)-2-[[(2S)-5-(diaminomethylideneamino)-2-[[(2S)-3-hydroxy-2-[[(2S)-2-[[(2S)-2-(isoquinolin-5-ylsulfonylamino)propanoyl]amino]propanoyl]amino]propanoyl]amino]pentanoyl]amino]pentanoyl]amino]pentanoyl]amino]pentanoyl]amino]pentanoyl]amino]pentanoic acid

> <PUBCHEM_IUPAC_SYSTEMATIC_NAME>
(2S)-5-[bis(azanyl)methylideneamino]-2-[[(2S)-5-[bis(azanyl)methylideneamino]-2-[[(2S)-5-[bis(azanyl)methylideneamino]-2-[[(2S)-5-[bis(azanyl)methylideneamino]-2-[[(2S)-5-[bis(azanyl)methylideneamino]-2-[[(2S)-5-[bis(azanyl)methylideneamino]-2-[[(2S)-2-[[(2S)-2-[[(2S)-2-(isoquinolin-5-ylsulfonylamino)propanoyl]amino]propanoyl]amino]-3-oxidanyl-propanoyl]amino]pentanoyl]amino]pentanoyl]amino]pentanoyl]amino]pentanoyl]amino]pentanoyl]amino]pentanoic acid

> <PUBCHEM_IUPAC_TRADITIONAL_NAME>
(2S)-5-guanidino-2-[[(2S)-5-guanidino-2-[[(2S)-5-guanidino-2-[[(2S)-5-guanidino-2-[[(2S)-5-guanidino-2-[[(2S)-5-guanidino-2-[[(2S)-3-hydroxy-2-[[(2S)-2-[[(2S)-2-(5-isoquinolylsulfonylamino)propanoyl]amino]propanoyl]amino]propanoyl]amino]pentanoyl]amino]pentanoyl]amino]pentanoyl]amino]pentanoyl]amino]pentanoyl]amino]valeric acid

> <PUBCHEM_IUPAC_INCHI>
InChI=1S/C54H94N28O13S/c1-28(74-41(85)29(2)82-96(94,95)39-17-3-10-30-26-67-25-18-31(30)39)40(84)81-38(27-83)47(91)79-35(14-7-22-71-52(61)62)45(89)77-33(12-5-20-69-50(57)58)43(87)75-32(11-4-19-68-49(55)56)42(86)76-34(13-6-21-70-51(59)60)44(88)78-36(15-8-23-72-53(63)64)46(90)80-37(48(92)93)16-9-24-73-54(65)66/h3,10,17-18,25-26,28-29,32-38,82-83H,4-9,11-16,19-24,27H2,1-2H3,(H,74,85)(H,75,87)(H,76,86)(H,77,89)(H,78,88)(H,79,91)(H,80,90)(H,81,84)(H,92,93)(H4,55,56,68)(H4,57,58,69)(H4,59,60,70)(H4,61,62,71)(H4,63,64,72)(H4,65,66,73)/t28-,29-,32-,33-,34-,35-,36-,37-,38-/m0/s1

> <PUBCHEM_IUPAC_INCHIKEY>
BXJBYSKTRZASJM-GXTUSLNOSA-N

> <PUBCHEM_XLOGP3_AA>
-9.2

> <PUBCHEM_EXACT_MASS>
1374.72758634

> <PUBCHEM_MOLECULAR_FORMULA>
C54H94N28O13S

> <PUBCHEM_MOLECULAR_WEIGHT>
1375.6

> <PUBCHEM_SMILES>
C[C@@H](C(=O)N[C@@H](CO)C(=O)N[C@@H](CCCN=C(N)N)C(=O)N[C@@H](CCCN=C(N)N)C(=O)N[C@@H](CCCN=C(N)N)C(=O)N[C@@H](CCCN=C(N)N)C(=O)N[C@@H](CCCN=C(N)N)C(=O)N[C@@H](CCCN=C(N)N)C(=O)O)NC(=O)[C@H](C)NS(=O)(=O)C1=CC=CC2=C1C=CN=C2

> <PUBCHEM_OPENEYE_CAN_SMILES>
CC(C(=O)NC(CO)C(=O)NC(CCCN=C(N)N)C(=O)NC(CCCN=C(N)N)C(=O)NC(CCCN=C(N)N)C(=O)NC(CCCN=C(N)N)C(=O)NC(CCCN=C(N)N)C(=O)NC(CCCN=C(N)N)C(=O)O)NC(=O)C(C)NS(=O)(=O)C1=CC=CC2=C1C=CN=C2

> <PUBCHEM_OPENEYE_ISO_SMILES>
C[C@@H](C(=O)N[C@@H](CO)C(=O)N[C@@H](CCCN=C(N)N)C(=O)N[C@@H](CCCN=C(N)N)C(=O)N[C@@H](CCCN=C(N)N)C(=O)N[C@@H](CCCN=C(N)N)C(=O)N[C@@H](CCCN=C(N)N)C(=O)N[C@@H](CCCN=C(N)N)C(=O)O)NC(=O)[C@H](C)NS(=O)(=O)C1=CC=CC2=C1C=CN=C2

> <PUBCHEM_CACTVS_TPSA>
744

> <PUBCHEM_MONOISOTOPIC_WEIGHT>
1374.72758634

> <PUBCHEM_TOTAL_CHARGE>
0

> <PUBCHEM_HEAVY_ATOM_COUNT>
96

> <PUBCHEM_ATOM_DEF_STEREO_COUNT>
9

> <PUBCHEM_ATOM_UDEF_STEREO_COUNT>
0

> <PUBCHEM_BOND_DEF_STEREO_COUNT>
0

> <PUBCHEM_BOND_UDEF_STEREO_COUNT>
0

> <PUBCHEM_ISOTOPIC_ATOM_COUNT>
0

> <PUBCHEM_COMPONENT_COUNT>
1

> <PUBCHEM_CACTVS_TAUTO_COUNT>
-1

> <PUBCHEM_COORDINATE_TYPE>
1
5
255

> <PUBCHEM_BONDANNOTATIONS>
43  15  5
44  16  6
45  17  6
50  18  5
52  19  5
66  20  6
70  23  6
77  27  5
84  31  6
42  95  8
42  96  8
88  89  8
88  90  8
89  91  8
89  94  8
90  92  8
91  93  8
91  95  8
92  93  8
94  96  8

$$$$
