11715520
  -OEChem-03202504412D

 28 28  0     0  0  0  0  0  0999 V2000
    6.3301   -0.9050    0.0000 O   0  0  0  0  0  0  0  0  0  0  0  0
    3.7320   -2.4050    0.0000 O   0  0  0  0  0  0  0  0  0  0  0  0
    4.5981   -0.9050    0.0000 N   0  0  0  0  0  0  0  0  0  0  0  0
    2.8660   -0.9050    0.0000 N   0  0  0  0  0  0  0  0  0  0  0  0
    4.5981    2.0950    0.0000 N   0  0  0  0  0  0  0  0  0  0  0  0
    7.1962    1.5950    0.0000 N   0  0  0  0  0  0  0  0  0  0  0  0
    4.5981    1.0950    0.0000 C   0  0  0  0  0  0  0  0  0  0  0  0
    3.7320   -0.4050    0.0000 C   0  0  0  0  0  0  0  0  0  0  0  0
    5.4641   -0.4050    0.0000 C   0  0  0  0  0  0  0  0  0  0  0  0
    5.4641    0.5950    0.0000 C   0  0  0  0  0  0  0  0  0  0  0  0
    3.7320    0.5950    0.0000 C   0  0  0  0  0  0  0  0  0  0  0  0
    6.3301   -1.9050    0.0000 C   0  0  0  0  0  0  0  0  0  0  0  0
    7.1962   -2.4050    0.0000 C   0  0  0  0  0  0  0  0  0  0  0  0
    2.8660   -1.9050    0.0000 C   0  0  0  0  0  0  0  0  0  0  0  0
    6.3301    1.0950    0.0000 C   0  0  0  0  0  0  0  0  0  0  0  0
    2.0000   -2.4050    0.0000 C   0  0  0  0  0  0  0  0  0  0  0  0
    3.1951    0.9050    0.0000 H   0  0  0  0  0  0  0  0  0  0  0  0
    5.7196   -1.7973    0.0000 H   0  0  0  0  0  0  0  0  0  0  0  0
    6.1181   -2.4876    0.0000 H   0  0  0  0  0  0  0  0  0  0  0  0
    2.3291   -0.5950    0.0000 H   0  0  0  0  0  0  0  0  0  0  0  0
    6.8862   -2.9419    0.0000 H   0  0  0  0  0  0  0  0  0  0  0  0
    7.7331   -2.7150    0.0000 H   0  0  0  0  0  0  0  0  0  0  0  0
    7.5062   -1.8681    0.0000 H   0  0  0  0  0  0  0  0  0  0  0  0
    4.0611    2.4050    0.0000 H   0  0  0  0  0  0  0  0  0  0  0  0
    5.1350    2.4050    0.0000 H   0  0  0  0  0  0  0  0  0  0  0  0
    1.6900   -1.8681    0.0000 H   0  0  0  0  0  0  0  0  0  0  0  0
    1.4631   -2.7150    0.0000 H   0  0  0  0  0  0  0  0  0  0  0  0
    2.3100   -2.9419    0.0000 H   0  0  0  0  0  0  0  0  0  0  0  0
  1  9  1  0  0  0  0
  1 12  1  0  0  0  0
  2 14  2  0  0  0  0
  3  8  2  0  0  0  0
  3  9  1  0  0  0  0
  4  8  1  0  0  0  0
  4 14  1  0  0  0  0
  4 20  1  0  0  0  0
  5  7  1  0  0  0  0
  5 24  1  0  0  0  0
  5 25  1  0  0  0  0
  6 15  3  0  0  0  0
  7 10  1  0  0  0  0
  7 11  2  0  0  0  0
  8 11  1  0  0  0  0
  9 10  2  0  0  0  0
 10 15  1  0  0  0  0
 11 17  1  0  0  0  0
 12 13  1  0  0  0  0
 12 18  1  0  0  0  0
 12 19  1  0  0  0  0
 13 21  1  0  0  0  0
 13 22  1  0  0  0  0
 13 23  1  0  0  0  0
 14 16  1  0  0  0  0
 16 26  1  0  0  0  0
 16 27  1  0  0  0  0
 16 28  1  0  0  0  0
M  END
> <PUBCHEM_COMPOUND_CID>
11715520

> <PUBCHEM_COMPOUND_CANONICALIZED>
1

> <PUBCHEM_CACTVS_COMPLEXITY>
298

> <PUBCHEM_CACTVS_HBOND_ACCEPTOR>
5

> <PUBCHEM_CACTVS_HBOND_DONOR>
2

> <PUBCHEM_CACTVS_ROTATABLE_BOND>
3

> <PUBCHEM_CACTVS_SUBSKEYS>
AAADccBzsAAAAAAAAAAAAAAAAAAAAAAAAAAsAAAAAAAAAAABgAAAHgAQAAAADAihmgIz9JLIFAC4BidydACiiCkhIiABmCA0bJiMpmLE+NuOPCju1RvI6C6QEAIMAAAAAAAAAAAAAAAAAAAAAAAAAAAAAA==

> <PUBCHEM_IUPAC_OPENEYE_NAME>
N-(4-amino-5-cyano-6-ethoxy-2-pyridyl)acetamide

> <PUBCHEM_IUPAC_CAS_NAME>
N-(4-amino-5-cyano-6-ethoxy-2-pyridinyl)acetamide

> <PUBCHEM_IUPAC_NAME_MARKUP>
<I>N</I>-(4-amino-5-cyano-6-ethoxypyridin-2-yl)acetamide

> <PUBCHEM_IUPAC_NAME>
N-(4-amino-5-cyano-6-ethoxypyridin-2-yl)acetamide

> <PUBCHEM_IUPAC_SYSTEMATIC_NAME>
N-(4-azanyl-5-cyano-6-ethoxy-pyridin-2-yl)ethanamide

> <PUBCHEM_IUPAC_TRADITIONAL_NAME>
N-(4-amino-5-cyano-6-ethoxy-2-pyridyl)acetamide

> <PUBCHEM_IUPAC_INCHI>
InChI=1S/C10H12N4O2/c1-3-16-10-7(5-11)8(12)4-9(14-10)13-6(2)15/h4H,3H2,1-2H3,(H3,12,13,14,15)

> <PUBCHEM_IUPAC_INCHIKEY>
DXAJWOOLPAIVJG-UHFFFAOYSA-N

> <PUBCHEM_XLOGP3_AA>
0.6

> <PUBCHEM_EXACT_MASS>
220.09602564

> <PUBCHEM_MOLECULAR_FORMULA>
C10H12N4O2

> <PUBCHEM_MOLECULAR_WEIGHT>
220.23

> <PUBCHEM_SMILES>
CCOC1=C(C(=CC(=N1)NC(=O)C)N)C#N

> <PUBCHEM_OPENEYE_CAN_SMILES>
CCOC1=C(C(=CC(=N1)NC(=O)C)N)C#N

> <PUBCHEM_OPENEYE_ISO_SMILES>
CCOC1=C(C(=CC(=N1)NC(=O)C)N)C#N

> <PUBCHEM_CACTVS_TPSA>
101

> <PUBCHEM_MONOISOTOPIC_WEIGHT>
220.09602564

> <PUBCHEM_TOTAL_CHARGE>
0

> <PUBCHEM_HEAVY_ATOM_COUNT>
16

> <PUBCHEM_ATOM_DEF_STEREO_COUNT>
0

> <PUBCHEM_ATOM_UDEF_STEREO_COUNT>
0

> <PUBCHEM_BOND_DEF_STEREO_COUNT>
0

> <PUBCHEM_BOND_UDEF_STEREO_COUNT>
0

> <PUBCHEM_ISOTOPIC_ATOM_COUNT>
0

> <PUBCHEM_COMPONENT_COUNT>
1

> <PUBCHEM_CACTVS_TAUTO_COUNT>
-1

> <PUBCHEM_COORDINATE_TYPE>
1
5
255

> <PUBCHEM_BONDANNOTATIONS>
3  8  8
3  9  8
7  10  8
7  11  8
8  11  8
9  10  8

$$$$
