10450849
  -OEChem-03202505082D

 44 48  0     0  0  0  0  0  0999 V2000
    6.7889   -1.7552    0.0000 O   0  0  0  0  0  0  0  0  0  0  0  0
    6.7889    1.7552    0.0000 O   0  0  0  0  0  0  0  0  0  0  0  0
    2.9061   -1.0347    0.0000 N   0  0  0  0  0  0  0  0  0  0  0  0
    2.9061    1.0347    0.0000 N   0  0  0  0  0  0  0  0  0  0  0  0
    7.0619   -0.0000    0.0000 N   0  0  0  0  0  0  0  0  0  0  0  0
    2.0000   -0.5208    0.0000 C   0  0  0  0  0  0  0  0  0  0  0  0
    2.0000    0.5208    0.0000 C   0  0  0  0  0  0  0  0  0  0  0  0
    3.8000   -0.5000    0.0000 C   0  0  0  0  0  0  0  0  0  0  0  0
    3.8000    0.5000    0.0000 C   0  0  0  0  0  0  0  0  0  0  0  0
    4.6660   -1.0000    0.0000 C   0  0  0  0  0  0  0  0  0  0  0  0
    4.6660    1.0000    0.0000 C   0  0  0  0  0  0  0  0  0  0  0  0
    5.5321   -0.5000    0.0000 C   0  0  0  0  0  0  0  0  0  0  0  0
    5.5321    0.5000    0.0000 C   0  0  0  0  0  0  0  0  0  0  0  0
    2.9176   -2.0346    0.0000 C   0  0  0  0  0  0  0  0  0  0  0  0
    2.9176    2.0346    0.0000 C   0  0  0  0  0  0  0  0  0  0  0  0
    6.4783   -0.8047    0.0000 C   0  0  0  0  0  0  0  0  0  0  0  0
    6.4783    0.8047    0.0000 C   0  0  0  0  0  0  0  0  0  0  0  0
    2.0574   -2.5446    0.0000 C   0  0  0  0  0  0  0  0  0  0  0  0
    2.0574    2.5446    0.0000 C   0  0  0  0  0  0  0  0  0  0  0  0
    3.7894   -2.5246    0.0000 C   0  0  0  0  0  0  0  0  0  0  0  0
    3.7894    2.5246    0.0000 C   0  0  0  0  0  0  0  0  0  0  0  0
    2.0690   -3.5445    0.0000 C   0  0  0  0  0  0  0  0  0  0  0  0
    2.0690    3.5445    0.0000 C   0  0  0  0  0  0  0  0  0  0  0  0
    3.8009   -3.5245    0.0000 C   0  0  0  0  0  0  0  0  0  0  0  0
    3.8009    3.5245    0.0000 C   0  0  0  0  0  0  0  0  0  0  0  0
    2.9408   -4.0345    0.0000 C   0  0  0  0  0  0  0  0  0  0  0  0
    2.9408    4.0345    0.0000 C   0  0  0  0  0  0  0  0  0  0  0  0
    1.3891   -0.4147    0.0000 H   0  0  0  0  0  0  0  0  0  0  0  0
    1.7909   -1.1045    0.0000 H   0  0  0  0  0  0  0  0  0  0  0  0
    1.7909    1.1045    0.0000 H   0  0  0  0  0  0  0  0  0  0  0  0
    1.3891    0.4147    0.0000 H   0  0  0  0  0  0  0  0  0  0  0  0
    4.6660   -1.6200    0.0000 H   0  0  0  0  0  0  0  0  0  0  0  0
    4.6660    1.6200    0.0000 H   0  0  0  0  0  0  0  0  0  0  0  0
    7.6819    0.0000    0.0000 H   0  0  0  0  0  0  0  0  0  0  0  0
    1.5170   -2.2408    0.0000 H   0  0  0  0  0  0  0  0  0  0  0  0
    1.5170    2.2408    0.0000 H   0  0  0  0  0  0  0  0  0  0  0  0
    4.3227   -2.2084    0.0000 H   0  0  0  0  0  0  0  0  0  0  0  0
    4.3227    2.2084    0.0000 H   0  0  0  0  0  0  0  0  0  0  0  0
    1.5357   -3.8607    0.0000 H   0  0  0  0  0  0  0  0  0  0  0  0
    1.5357    3.8607    0.0000 H   0  0  0  0  0  0  0  0  0  0  0  0
    4.3414   -3.8282    0.0000 H   0  0  0  0  0  0  0  0  0  0  0  0
    4.3414    3.8282    0.0000 H   0  0  0  0  0  0  0  0  0  0  0  0
    2.9479   -4.6544    0.0000 H   0  0  0  0  0  0  0  0  0  0  0  0
    2.9479    4.6544    0.0000 H   0  0  0  0  0  0  0  0  0  0  0  0
  1 16  2  0  0  0  0
  2 17  2  0  0  0  0
  3  6  1  0  0  0  0
  3  8  1  0  0  0  0
  3 14  1  0  0  0  0
  4  7  1  0  0  0  0
  4  9  1  0  0  0  0
  4 15  1  0  0  0  0
  5 16  1  0  0  0  0
  5 17  1  0  0  0  0
  5 34  1  0  0  0  0
  6  7  1  0  0  0  0
  6 28  1  0  0  0  0
  6 29  1  0  0  0  0
  7 30  1  0  0  0  0
  7 31  1  0  0  0  0
  8  9  2  0  0  0  0
  8 10  1  0  0  0  0
  9 11  1  0  0  0  0
 10 12  2  0  0  0  0
 10 32  1  0  0  0  0
 11 13  2  0  0  0  0
 11 33  1  0  0  0  0
 12 13  1  0  0  0  0
 12 16  1  0  0  0  0
 13 17  1  0  0  0  0
 14 18  2  0  0  0  0
 14 20  1  0  0  0  0
 15 19  2  0  0  0  0
 15 21  1  0  0  0  0
 18 22  1  0  0  0  0
 18 35  1  0  0  0  0
 19 23  1  0  0  0  0
 19 36  1  0  0  0  0
 20 24  2  0  0  0  0
 20 37  1  0  0  0  0
 21 25  2  0  0  0  0
 21 38  1  0  0  0  0
 22 26  2  0  0  0  0
 22 39  1  0  0  0  0
 23 27  2  0  0  0  0
 23 40  1  0  0  0  0
 24 26  1  0  0  0  0
 24 41  1  0  0  0  0
 25 27  1  0  0  0  0
 25 42  1  0  0  0  0
 26 43  1  0  0  0  0
 27 44  1  0  0  0  0
M  END
> <PUBCHEM_COMPOUND_CID>
10450849

> <PUBCHEM_COMPOUND_CANONICALIZED>
1

> <PUBCHEM_CACTVS_COMPLEXITY>
532

> <PUBCHEM_CACTVS_HBOND_ACCEPTOR>
4

> <PUBCHEM_CACTVS_HBOND_DONOR>
1

> <PUBCHEM_CACTVS_ROTATABLE_BOND>
2

> <PUBCHEM_CACTVS_SUBSKEYS>
AAADceB7MAAAAAAAAAAAAAAAAAAAAWAAAAA8YMEAAAAAAFixUAAAHgAQAAAADAjBmAQwwIPAAACIAiVSUACCAAAlAgAIiAEIdMgIYHLAlZGUIQhghCDIyYcdiYCeiAAAQAAQACAQAACAACAAQAAAAAAAAA==

> <PUBCHEM_IUPAC_OPENEYE_NAME>
1,4-diphenyl-2,3-dihydropyrrolo[3,4-g]quinoxaline-6,8-dione

> <PUBCHEM_IUPAC_CAS_NAME>
1,4-diphenyl-2,3-dihydropyrrolo[3,4-g]quinoxaline-6,8-dione

> <PUBCHEM_IUPAC_NAME_MARKUP>
1,4-diphenyl-2,3-dihydropyrrolo[3,4-g]quinoxaline-6,8-dione

> <PUBCHEM_IUPAC_NAME>
1,4-diphenyl-2,3-dihydropyrrolo[3,4-g]quinoxaline-6,8-dione

> <PUBCHEM_IUPAC_SYSTEMATIC_NAME>
1,4-diphenyl-2,3-dihydropyrrolo[3,4-g]quinoxaline-6,8-dione

> <PUBCHEM_IUPAC_TRADITIONAL_NAME>
1,4-diphenyl-2,3-dihydropyrrolo[3,4-g]quinoxaline-6,8-quinone

> <PUBCHEM_IUPAC_INCHI>
InChI=1S/C22H17N3O2/c26-21-17-13-19-20(14-18(17)22(27)23-21)25(16-9-5-2-6-10-16)12-11-24(19)15-7-3-1-4-8-15/h1-10,13-14H,11-12H2,(H,23,26,27)

> <PUBCHEM_IUPAC_INCHIKEY>
DNRPTTQOSZQOGJ-UHFFFAOYSA-N

> <PUBCHEM_XLOGP3_AA>
3.9

> <PUBCHEM_EXACT_MASS>
355.132076794

> <PUBCHEM_MOLECULAR_FORMULA>
C22H17N3O2

> <PUBCHEM_MOLECULAR_WEIGHT>
355.4

> <PUBCHEM_SMILES>
C1CN(C2=C(N1C3=CC=CC=C3)C=C4C(=C2)C(=O)NC4=O)C5=CC=CC=C5

> <PUBCHEM_OPENEYE_CAN_SMILES>
C1CN(C2=C(N1C3=CC=CC=C3)C=C4C(=C2)C(=O)NC4=O)C5=CC=CC=C5

> <PUBCHEM_OPENEYE_ISO_SMILES>
C1CN(C2=C(N1C3=CC=CC=C3)C=C4C(=C2)C(=O)NC4=O)C5=CC=CC=C5

> <PUBCHEM_CACTVS_TPSA>
52.7

> <PUBCHEM_MONOISOTOPIC_WEIGHT>
355.132076794

> <PUBCHEM_TOTAL_CHARGE>
0

> <PUBCHEM_HEAVY_ATOM_COUNT>
27

> <PUBCHEM_ATOM_DEF_STEREO_COUNT>
0

> <PUBCHEM_ATOM_UDEF_STEREO_COUNT>
0

> <PUBCHEM_BOND_DEF_STEREO_COUNT>
0

> <PUBCHEM_BOND_UDEF_STEREO_COUNT>
0

> <PUBCHEM_ISOTOPIC_ATOM_COUNT>
0

> <PUBCHEM_COMPONENT_COUNT>
1

> <PUBCHEM_CACTVS_TAUTO_COUNT>
-1

> <PUBCHEM_COORDINATE_TYPE>
1
5
255

> <PUBCHEM_BONDANNOTATIONS>
10  12  8
11  13  8
12  13  8
14  18  8
14  20  8
15  19  8
15  21  8
18  22  8
19  23  8
20  24  8
21  25  8
22  26  8
23  27  8
24  26  8
25  27  8
8  10  8
8  9  8
9  11  8

$$$$
