9826083
  -OEChem-03192523282D

 64 69  0     0  0  0  0  0  0999 V2000
   12.7260   -2.1315    0.0000 F   0  0  0  0  0  0  0  0  0  0  0  0
    7.4280    2.0629    0.0000 N   0  0  0  0  0  0  0  0  0  0  0  0
    4.5981   -3.1315    0.0000 N   0  0  0  0  0  0  0  0  0  0  0  0
    2.8660   -4.1315    0.0000 N   0  0  0  0  0  0  0  0  0  0  0  0
    8.1424   -1.3267    0.0000 N   0  0  0  0  0  0  0  0  0  0  0  0
    7.7852    0.3681    0.0000 N   0  0  0  0  0  0  0  0  0  0  0  0
    6.3301   -3.1315    0.0000 N   0  0  0  0  0  0  0  0  0  0  0  0
    9.0744    1.5248    0.0000 N   0  0  0  0  0  0  0  0  0  0  0  0
    8.1424   -2.9362    0.0000 N   0  0  0  0  0  0  0  0  0  0  0  0
    7.7387    3.0134    0.0000 C   0  0  0  0  0  0  0  0  0  0  0  0
    8.6903    3.3208    0.0000 C   0  0  0  0  0  0  0  0  0  0  0  0
    7.1523    3.8235    0.0000 C   0  0  0  0  0  0  0  0  0  0  0  0
    8.6920    4.3208    0.0000 C   0  0  0  0  0  0  0  0  0  0  0  0
    7.7415    4.6315    0.0000 C   0  0  0  0  0  0  0  0  0  0  0  0
    3.7320   -2.6315    0.0000 C   0  0  0  0  0  0  0  0  0  0  0  0
    4.5981   -4.1315    0.0000 C   0  0  0  0  0  0  0  0  0  0  0  0
    2.8660   -3.1315    0.0000 C   0  0  0  0  0  0  0  0  0  0  0  0
    3.7320   -4.6315    0.0000 C   0  0  0  0  0  0  0  0  0  0  0  0
    8.0958    1.3186    0.0000 C   0  0  0  0  0  0  0  0  0  0  0  0
    5.4641   -2.6315    0.0000 C   0  0  0  0  0  0  0  0  0  0  0  0
    2.0000   -4.6315    0.0000 C   0  0  0  0  0  0  0  0  0  0  0  0
    7.1962   -1.6315    0.0000 C   0  0  0  0  0  0  0  0  0  0  0  0
    8.4530   -0.3762    0.0000 C   0  0  0  0  0  0  0  0  0  0  0  0
    5.4641   -1.6315    0.0000 C   0  0  0  0  0  0  0  0  0  0  0  0
    7.1962   -2.6315    0.0000 C   0  0  0  0  0  0  0  0  0  0  0  0
    6.3301   -1.1315    0.0000 C   0  0  0  0  0  0  0  0  0  0  0  0
    8.7260   -2.1315    0.0000 C   0  0  0  0  0  0  0  0  0  0  0  0
    9.4315   -0.1700    0.0000 C   0  0  0  0  0  0  0  0  0  0  0  0
    9.7422    0.7805    0.0000 C   0  0  0  0  0  0  0  0  0  0  0  0
    9.7260   -2.1315    0.0000 C   0  0  0  0  0  0  0  0  0  0  0  0
   10.2260   -2.9975    0.0000 C   0  0  0  0  0  0  0  0  0  0  0  0
   10.2260   -1.2654    0.0000 C   0  0  0  0  0  0  0  0  0  0  0  0
   11.2260   -2.9975    0.0000 C   0  0  0  0  0  0  0  0  0  0  0  0
   11.2260   -1.2654    0.0000 C   0  0  0  0  0  0  0  0  0  0  0  0
   11.7260   -2.1315    0.0000 C   0  0  0  0  0  0  0  0  0  0  0  0
    7.1261    2.9175    0.0000 H   0  0  0  0  0  0  0  0  0  0  0  0
    8.8181    2.7141    0.0000 H   0  0  0  0  0  0  0  0  0  0  0  0
    9.3070    3.3845    0.0000 H   0  0  0  0  0  0  0  0  0  0  0  0
    6.6923    4.2391    0.0000 H   0  0  0  0  0  0  0  0  0  0  0  0
    6.6908    3.4094    0.0000 H   0  0  0  0  0  0  0  0  0  0  0  0
    9.3085    4.2549    0.0000 H   0  0  0  0  0  0  0  0  0  0  0  0
    8.8220    4.9270    0.0000 H   0  0  0  0  0  0  0  0  0  0  0  0
    7.9946    5.1974    0.0000 H   0  0  0  0  0  0  0  0  0  0  0  0
    7.2051    4.9424    0.0000 H   0  0  0  0  0  0  0  0  0  0  0  0
    6.8213    1.9351    0.0000 H   0  0  0  0  0  0  0  0  0  0  0  0
    4.1306   -2.1565    0.0000 H   0  0  0  0  0  0  0  0  0  0  0  0
    3.3335   -2.1565    0.0000 H   0  0  0  0  0  0  0  0  0  0  0  0
    4.8101   -4.7141    0.0000 H   0  0  0  0  0  0  0  0  0  0  0  0
    5.2087   -4.0238    0.0000 H   0  0  0  0  0  0  0  0  0  0  0  0
    2.6540   -2.5488    0.0000 H   0  0  0  0  0  0  0  0  0  0  0  0
    2.2554   -3.2391    0.0000 H   0  0  0  0  0  0  0  0  0  0  0  0
    3.3335   -5.1064    0.0000 H   0  0  0  0  0  0  0  0  0  0  0  0
    4.1306   -5.1064    0.0000 H   0  0  0  0  0  0  0  0  0  0  0  0
    1.6900   -4.0945    0.0000 H   0  0  0  0  0  0  0  0  0  0  0  0
    1.4631   -4.9415    0.0000 H   0  0  0  0  0  0  0  0  0  0  0  0
    2.3100   -5.1684    0.0000 H   0  0  0  0  0  0  0  0  0  0  0  0
    4.9272   -1.3215    0.0000 H   0  0  0  0  0  0  0  0  0  0  0  0
    6.3301   -0.5115    0.0000 H   0  0  0  0  0  0  0  0  0  0  0  0
    9.8456   -0.6315    0.0000 H   0  0  0  0  0  0  0  0  0  0  0  0
   10.3489    0.9084    0.0000 H   0  0  0  0  0  0  0  0  0  0  0  0
    9.9160   -3.5344    0.0000 H   0  0  0  0  0  0  0  0  0  0  0  0
    9.9160   -0.7285    0.0000 H   0  0  0  0  0  0  0  0  0  0  0  0
   11.5360   -3.5344    0.0000 H   0  0  0  0  0  0  0  0  0  0  0  0
   11.5360   -0.7285    0.0000 H   0  0  0  0  0  0  0  0  0  0  0  0
  1 35  1  0  0  0  0
  2 10  1  0  0  0  0
  2 19  1  0  0  0  0
  2 45  1  0  0  0  0
  3 15  1  0  0  0  0
  3 16  1  0  0  0  0
  3 20  1  0  0  0  0
  4 17  1  0  0  0  0
  4 18  1  0  0  0  0
  4 21  1  0  0  0  0
  5 22  1  0  0  0  0
  5 23  1  0  0  0  0
  5 27  1  0  0  0  0
  6 19  1  0  0  0  0
  6 23  2  0  0  0  0
  7 20  2  0  0  0  0
  7 25  1  0  0  0  0
  8 19  2  0  0  0  0
  8 29  1  0  0  0  0
  9 25  1  0  0  0  0
  9 27  2  0  0  0  0
 10 11  1  0  0  0  0
 10 12  1  0  0  0  0
 10 36  1  0  0  0  0
 11 13  1  0  0  0  0
 11 37  1  0  0  0  0
 11 38  1  0  0  0  0
 12 14  1  0  0  0  0
 12 39  1  0  0  0  0
 12 40  1  0  0  0  0
 13 14  1  0  0  0  0
 13 41  1  0  0  0  0
 13 42  1  0  0  0  0
 14 43  1  0  0  0  0
 14 44  1  0  0  0  0
 15 17  1  0  0  0  0
 15 46  1  0  0  0  0
 15 47  1  0  0  0  0
 16 18  1  0  0  0  0
 16 48  1  0  0  0  0
 16 49  1  0  0  0  0
 17 50  1  0  0  0  0
 17 51  1  0  0  0  0
 18 52  1  0  0  0  0
 18 53  1  0  0  0  0
 20 24  1  0  0  0  0
 21 54  1  0  0  0  0
 21 55  1  0  0  0  0
 21 56  1  0  0  0  0
 22 25  2  0  0  0  0
 22 26  1  0  0  0  0
 23 28  1  0  0  0  0
 24 26  2  0  0  0  0
 24 57  1  0  0  0  0
 26 58  1  0  0  0  0
 27 30  1  0  0  0  0
 28 29  2  0  0  0  0
 28 59  1  0  0  0  0
 29 60  1  0  0  0  0
 30 31  2  0  0  0  0
 30 32  1  0  0  0  0
 31 33  1  0  0  0  0
 31 61  1  0  0  0  0
 32 34  2  0  0  0  0
 32 62  1  0  0  0  0
 33 35  2  0  0  0  0
 33 63  1  0  0  0  0
 34 35  1  0  0  0  0
 34 64  1  0  0  0  0
M  END
> <PUBCHEM_COMPOUND_CID>
9826083

> <PUBCHEM_COMPOUND_CANONICALIZED>
1

> <PUBCHEM_CACTVS_COMPLEXITY>
676

> <PUBCHEM_CACTVS_HBOND_ACCEPTOR>
8

> <PUBCHEM_CACTVS_HBOND_DONOR>
1

> <PUBCHEM_CACTVS_ROTATABLE_BOND>
5

> <PUBCHEM_CACTVS_SUBSKEYS>
AAADceB7wQAAAAAAAAAAAAAAAAAAAeIAAAA8WLEAAAAAAFgB/gAAHQAQAAAADCjBHww/8L/MEACgAzZnZACCgC0xEqAJ2KA4dJiIaOLA2dGUJAhokALIyCcQgAAOAAAAAAAAAAAAAAAAAAAAAAAAAAAAAA==

> <PUBCHEM_IUPAC_OPENEYE_NAME>
N-cyclopentyl-4-[2-(4-fluorophenyl)-5-(4-methylpiperazin-1-yl)imidazo[4,5-b]pyridin-1-yl]pyrimidin-2-amine

> <PUBCHEM_IUPAC_CAS_NAME>
N-cyclopentyl-4-[2-(4-fluorophenyl)-5-(4-methyl-1-piperazinyl)-1-imidazo[4,5-b]pyridinyl]-2-pyrimidinamine

> <PUBCHEM_IUPAC_NAME_MARKUP>
<I>N</I>-cyclopentyl-4-[2-(4-fluorophenyl)-5-(4-methylpiperazin-1-yl)imidazo[4,5-b]pyridin-1-yl]pyrimidin-2-amine

> <PUBCHEM_IUPAC_NAME>
N-cyclopentyl-4-[2-(4-fluorophenyl)-5-(4-methylpiperazin-1-yl)imidazo[4,5-b]pyridin-1-yl]pyrimidin-2-amine

> <PUBCHEM_IUPAC_SYSTEMATIC_NAME>
N-cyclopentyl-4-[2-(4-fluorophenyl)-5-(4-methylpiperazin-1-yl)imidazo[4,5-b]pyridin-1-yl]pyrimidin-2-amine

> <PUBCHEM_IUPAC_TRADITIONAL_NAME>
cyclopentyl-[4-[2-(4-fluorophenyl)-5-(4-methylpiperazino)imidazo[4,5-b]pyridin-1-yl]pyrimidin-2-yl]amine

> <PUBCHEM_IUPAC_INCHI>
InChI=1S/C26H29FN8/c1-33-14-16-34(17-15-33)22-11-10-21-24(30-22)32-25(18-6-8-19(27)9-7-18)35(21)23-12-13-28-26(31-23)29-20-4-2-3-5-20/h6-13,20H,2-5,14-17H2,1H3,(H,28,29,31)

> <PUBCHEM_IUPAC_INCHIKEY>
BARFMAOTOPEJFY-UHFFFAOYSA-N

> <PUBCHEM_XLOGP3_AA>
4.6

> <PUBCHEM_EXACT_MASS>
472.24992112

> <PUBCHEM_MOLECULAR_FORMULA>
C26H29FN8

> <PUBCHEM_MOLECULAR_WEIGHT>
472.6

> <PUBCHEM_SMILES>
CN1CCN(CC1)C2=NC3=C(C=C2)N(C(=N3)C4=CC=C(C=C4)F)C5=NC(=NC=C5)NC6CCCC6

> <PUBCHEM_OPENEYE_CAN_SMILES>
CN1CCN(CC1)C2=NC3=C(C=C2)N(C(=N3)C4=CC=C(C=C4)F)C5=NC(=NC=C5)NC6CCCC6

> <PUBCHEM_OPENEYE_ISO_SMILES>
CN1CCN(CC1)C2=NC3=C(C=C2)N(C(=N3)C4=CC=C(C=C4)F)C5=NC(=NC=C5)NC6CCCC6

> <PUBCHEM_CACTVS_TPSA>
75

> <PUBCHEM_MONOISOTOPIC_WEIGHT>
472.24992112

> <PUBCHEM_TOTAL_CHARGE>
0

> <PUBCHEM_HEAVY_ATOM_COUNT>
35

> <PUBCHEM_ATOM_DEF_STEREO_COUNT>
0

> <PUBCHEM_ATOM_UDEF_STEREO_COUNT>
0

> <PUBCHEM_BOND_DEF_STEREO_COUNT>
0

> <PUBCHEM_BOND_UDEF_STEREO_COUNT>
0

> <PUBCHEM_ISOTOPIC_ATOM_COUNT>
0

> <PUBCHEM_COMPONENT_COUNT>
1

> <PUBCHEM_CACTVS_TAUTO_COUNT>
-1

> <PUBCHEM_COORDINATE_TYPE>
1
5
255

> <PUBCHEM_BONDANNOTATIONS>
20  24  8
22  25  8
22  26  8
23  28  8
24  26  8
28  29  8
30  31  8
30  32  8
31  33  8
32  34  8
33  35  8
34  35  8
5  22  8
5  27  8
6  19  8
6  23  8
7  20  8
7  25  8
8  19  8
8  29  8
9  25  8
9  27  8

$$$$
