1568886
  -OEChem-03202501132D

 28 32  0     0  0  0  0  0  0999 V2000
    2.9785   -0.7050    0.0000 S   0  0  0  0  0  0  0  0  0  0  0  0
    2.0000    1.4229    0.0000 S   0  0  0  0  0  0  0  0  0  0  0  0
    6.7044    2.2173    0.0000 S   0  0  0  0  0  0  0  0  0  0  0  0
    3.7155    0.9621    0.0000 N   0  0  0  0  0  0  0  0  0  0  0  0
    5.4476    0.9621    0.0000 N   0  0  0  0  0  0  0  0  0  0  0  0
    6.3938   -0.3427    0.0000 N   0  0  0  0  0  0  0  0  0  0  0  0
    4.3723    2.4339    0.0000 N   0  0  0  0  0  0  0  0  0  0  0  0
    6.9774    0.4621    0.0000 N   0  0  0  0  0  0  0  0  0  0  0  0
    3.3836    2.5369    0.0000 N   0  0  0  0  0  0  0  0  0  0  0  0
    4.3723   -1.5098    0.0000 C   0  0  0  0  0  0  0  0  0  0  0  0
    4.5816   -0.5379    0.0000 C   0  0  0  0  0  0  0  0  0  0  0  0
    4.7711   -2.4139    0.0000 C   0  0  0  0  0  0  0  0  0  0  0  0
    3.3836   -1.6128    0.0000 C   0  0  0  0  0  0  0  0  0  0  0  0
    4.0356   -3.0739    0.0000 C   0  0  0  0  0  0  0  0  0  0  0  0
    3.1798   -2.5798    0.0000 C   0  0  0  0  0  0  0  0  0  0  0  0
    3.7155   -0.0379    0.0000 C   0  0  0  0  0  0  0  0  0  0  0  0
    5.4476   -0.0379    0.0000 C   0  0  0  0  0  0  0  0  0  0  0  0
    4.5816    1.4621    0.0000 C   0  0  0  0  0  0  0  0  0  0  0  0
    2.9785    1.6291    0.0000 C   0  0  0  0  0  0  0  0  0  0  0  0
    6.3938    1.2668    0.0000 C   0  0  0  0  0  0  0  0  0  0  0  0
    5.1344   -2.9163    0.0000 H   0  0  0  0  0  0  0  0  0  0  0  0
    5.3090   -2.1054    0.0000 H   0  0  0  0  0  0  0  0  0  0  0  0
    3.6709   -3.5752    0.0000 H   0  0  0  0  0  0  0  0  0  0  0  0
    4.4959   -3.4893    0.0000 H   0  0  0  0  0  0  0  0  0  0  0  0
    2.5900   -2.3889    0.0000 H   0  0  0  0  0  0  0  0  0  0  0  0
    2.9280   -3.1463    0.0000 H   0  0  0  0  0  0  0  0  0  0  0  0
    7.5974    0.4621    0.0000 H   0  0  0  0  0  0  0  0  0  0  0  0
    3.0736    3.0739    0.0000 H   0  0  0  0  0  0  0  0  0  0  0  0
  1 13  1  0  0  0  0
  1 16  1  0  0  0  0
  2 19  2  0  0  0  0
  3 20  2  0  0  0  0
  4 16  1  0  0  0  0
  4 18  1  0  0  0  0
  4 19  1  0  0  0  0
  5 17  1  0  0  0  0
  5 18  1  0  0  0  0
  5 20  1  0  0  0  0
  6  8  1  0  0  0  0
  6 17  2  0  0  0  0
  7  9  1  0  0  0  0
  7 18  2  0  0  0  0
  8 20  1  0  0  0  0
  8 27  1  0  0  0  0
  9 19  1  0  0  0  0
  9 28  1  0  0  0  0
 10 11  1  0  0  0  0
 10 12  1  0  0  0  0
 10 13  2  0  0  0  0
 11 16  2  0  0  0  0
 11 17  1  0  0  0  0
 12 14  1  0  0  0  0
 12 21  1  0  0  0  0
 12 22  1  0  0  0  0
 13 15  1  0  0  0  0
 14 15  1  0  0  0  0
 14 23  1  0  0  0  0
 14 24  1  0  0  0  0
 15 25  1  0  0  0  0
 15 26  1  0  0  0  0
M  END
> <PUBCHEM_COMPOUND_CID>
1568886

> <PUBCHEM_COMPOUND_CANONICALIZED>
1

> <PUBCHEM_CACTVS_COMPLEXITY>
601

> <PUBCHEM_CACTVS_HBOND_ACCEPTOR>
5

> <PUBCHEM_CACTVS_HBOND_DONOR>
2

> <PUBCHEM_CACTVS_ROTATABLE_BOND>
0

> <PUBCHEM_CACTVS_SUBSKEYS>
AAADccBzgABgAAAAAAAAAAAAAAAAAaIECAAsAAAAAAASAFgBgAAAHAQYAAAADACBWAABgYNiAAikAgJgYACTAIBhCBkFiBAgRJiIICLg2JGEAAhoiAJoyCcQgEAOgAAAAAAAAAAAAAAAAAAAAAAAAgAAAA==

> <PUBCHEM_IUPAC_OPENEYE_NAME>
18-thia-2,4,5,7,9,10-hexazapentacyclo[10.6.0.02,6.07,11.013,17]octadeca-1(12),5,10,13(17)-tetraene-3,8-dithione

> <PUBCHEM_IUPAC_CAS_NAME>
18-thia-2,4,5,7,9,10-hexazapentacyclo[10.6.0.02,6.07,11.013,17]octadeca-1(12),5,10,13(17)-tetraene-3,8-dithione

> <PUBCHEM_IUPAC_NAME_MARKUP>
18-thia-2,4,5,7,9,10-hexazapentacyclo[10.6.0.0<SUP>2,6</SUP>.0<SUP>7,11</SUP>.0<SUP>13,17</SUP>]octadeca-1(12),5,10,13(17)-tetraene-3,8-dithione

> <PUBCHEM_IUPAC_NAME>
18-thia-2,4,5,7,9,10-hexazapentacyclo[10.6.0.02,6.07,11.013,17]octadeca-1(12),5,10,13(17)-tetraene-3,8-dithione

> <PUBCHEM_IUPAC_SYSTEMATIC_NAME>
18-thia-2,4,5,7,9,10-hexazapentacyclo[10.6.0.02,6.07,11.013,17]octadeca-1(12),5,10,13(17)-tetraene-3,8-dithione

> <PUBCHEM_IUPAC_TRADITIONAL_NAME>
18-thia-2,4,5,7,9,10-hexazapentacyclo[10.6.0.02,6.07,11.013,17]octadeca-1(12),5,10,13(17)-tetraene-3,8-dithione

> <PUBCHEM_IUPAC_INCHI>
InChI=1S/C11H8N6S3/c18-10-14-12-7-6-4-2-1-3-5(4)20-8(6)17-9(16(7)10)13-15-11(17)19/h1-3H2,(H,14,18)(H,15,19)

> <PUBCHEM_IUPAC_INCHIKEY>
VNGYQBMDQMDALH-UHFFFAOYSA-N

> <PUBCHEM_XLOGP3_AA>
2

> <PUBCHEM_EXACT_MASS>
319.99725780

> <PUBCHEM_MOLECULAR_FORMULA>
C11H8N6S3

> <PUBCHEM_MOLECULAR_WEIGHT>
320.4

> <PUBCHEM_SMILES>
C1CC2=C(C1)SC3=C2C4=NNC(=S)N4C5=NNC(=S)N35

> <PUBCHEM_OPENEYE_CAN_SMILES>
C1CC2=C(C1)SC3=C2C4=NNC(=S)N4C5=NNC(=S)N35

> <PUBCHEM_OPENEYE_ISO_SMILES>
C1CC2=C(C1)SC3=C2C4=NNC(=S)N4C5=NNC(=S)N35

> <PUBCHEM_CACTVS_TPSA>
148

> <PUBCHEM_MONOISOTOPIC_WEIGHT>
319.99725780

> <PUBCHEM_TOTAL_CHARGE>
0

> <PUBCHEM_HEAVY_ATOM_COUNT>
20

> <PUBCHEM_ATOM_DEF_STEREO_COUNT>
0

> <PUBCHEM_ATOM_UDEF_STEREO_COUNT>
0

> <PUBCHEM_BOND_DEF_STEREO_COUNT>
0

> <PUBCHEM_BOND_UDEF_STEREO_COUNT>
0

> <PUBCHEM_ISOTOPIC_ATOM_COUNT>
0

> <PUBCHEM_COMPONENT_COUNT>
1

> <PUBCHEM_CACTVS_TAUTO_COUNT>
-1

> <PUBCHEM_COORDINATE_TYPE>
1
5
255

> <PUBCHEM_BONDANNOTATIONS>
1  13  8
1  16  8
10  11  8
10  13  8
11  16  8
11  17  8
4  16  8
4  18  8
4  19  8
5  17  8
5  18  8
5  20  8
6  17  8
6  8  8
7  18  8
7  9  8
8  20  8
9  19  8

$$$$
