6603792
  -OEChem-03202506342D

 50 54  0     0  0  0  0  0  0999 V2000
    5.9209    3.3086    0.0000 O   0  0  0  0  0  0  0  0  0  0  0  0
    4.6783   -2.1030    0.0000 N   0  0  0  0  0  0  0  0  0  0  0  0
    2.8660   -2.2982    0.0000 N   0  0  0  0  0  0  0  0  0  0  0  0
    2.0000   -0.7982    0.0000 N   0  0  0  0  0  0  0  0  0  0  0  0
    2.8660    0.7018    0.0000 N   0  0  0  0  0  0  0  0  0  0  0  0
    4.9889   -3.0535    0.0000 C   0  0  0  0  0  0  0  0  0  0  0  0
    4.4026   -3.8635    0.0000 C   0  0  0  0  0  0  0  0  0  0  0  0
    5.9405   -3.3609    0.0000 C   0  0  0  0  0  0  0  0  0  0  0  0
    4.9917   -4.6715    0.0000 C   0  0  0  0  0  0  0  0  0  0  0  0
    5.9422   -4.3609    0.0000 C   0  0  0  0  0  0  0  0  0  0  0  0
    3.7320   -1.7982    0.0000 C   0  0  0  0  0  0  0  0  0  0  0  0
    5.2619   -1.2982    0.0000 C   0  0  0  0  0  0  0  0  0  0  0  0
    3.7320   -0.7982    0.0000 C   0  0  0  0  0  0  0  0  0  0  0  0
    4.6783   -0.4935    0.0000 C   0  0  0  0  0  0  0  0  0  0  0  0
    4.9889    0.4570    0.0000 C   0  0  0  0  0  0  0  0  0  0  0  0
    2.8660   -0.2982    0.0000 C   0  0  0  0  0  0  0  0  0  0  0  0
    2.0000   -1.7982    0.0000 C   0  0  0  0  0  0  0  0  0  0  0  0
    4.3211    1.2013    0.0000 C   0  0  0  0  0  0  0  0  0  0  0  0
    5.9674    0.6632    0.0000 C   0  0  0  0  0  0  0  0  0  0  0  0
    4.6318    2.1518    0.0000 C   0  0  0  0  0  0  0  0  0  0  0  0
    6.2781    1.6138    0.0000 C   0  0  0  0  0  0  0  0  0  0  0  0
    5.6103    2.3580    0.0000 C   0  0  0  0  0  0  0  0  0  0  0  0
    6.8994    3.5148    0.0000 C   0  0  0  0  0  0  0  0  0  0  0  0
    7.2101    4.4653    0.0000 C   0  0  0  0  0  0  0  0  0  0  0  0
    7.5673    2.7705    0.0000 C   0  0  0  0  0  0  0  0  0  0  0  0
    8.1886    4.6715    0.0000 C   0  0  0  0  0  0  0  0  0  0  0  0
    8.5458    2.9767    0.0000 C   0  0  0  0  0  0  0  0  0  0  0  0
    8.8564    3.9272    0.0000 C   0  0  0  0  0  0  0  0  0  0  0  0
    5.4266   -2.6143    0.0000 H   0  0  0  0  0  0  0  0  0  0  0  0
    3.9411   -3.4495    0.0000 H   0  0  0  0  0  0  0  0  0  0  0  0
    3.9425   -4.2792    0.0000 H   0  0  0  0  0  0  0  0  0  0  0  0
    6.5572   -3.4246    0.0000 H   0  0  0  0  0  0  0  0  0  0  0  0
    6.0684   -2.7542    0.0000 H   0  0  0  0  0  0  0  0  0  0  0  0
    4.4553   -4.9825    0.0000 H   0  0  0  0  0  0  0  0  0  0  0  0
    5.2449   -5.2375    0.0000 H   0  0  0  0  0  0  0  0  0  0  0  0
    6.0722   -4.9671    0.0000 H   0  0  0  0  0  0  0  0  0  0  0  0
    6.5587   -4.2950    0.0000 H   0  0  0  0  0  0  0  0  0  0  0  0
    5.8819   -1.2982    0.0000 H   0  0  0  0  0  0  0  0  0  0  0  0
    1.4631   -2.1082    0.0000 H   0  0  0  0  0  0  0  0  0  0  0  0
    3.7144    1.0734    0.0000 H   0  0  0  0  0  0  0  0  0  0  0  0
    6.3815    0.2018    0.0000 H   0  0  0  0  0  0  0  0  0  0  0  0
    2.3291    1.0118    0.0000 H   0  0  0  0  0  0  0  0  0  0  0  0
    3.4030    1.0118    0.0000 H   0  0  0  0  0  0  0  0  0  0  0  0
    4.2177    2.6133    0.0000 H   0  0  0  0  0  0  0  0  0  0  0  0
    6.8848    1.7416    0.0000 H   0  0  0  0  0  0  0  0  0  0  0  0
    6.7960    4.9268    0.0000 H   0  0  0  0  0  0  0  0  0  0  0  0
    7.3747    2.1812    0.0000 H   0  0  0  0  0  0  0  0  0  0  0  0
    8.3812    5.2608    0.0000 H   0  0  0  0  0  0  0  0  0  0  0  0
    8.9598    2.5152    0.0000 H   0  0  0  0  0  0  0  0  0  0  0  0
    9.4631    4.0551    0.0000 H   0  0  0  0  0  0  0  0  0  0  0  0
  1 22  1  0  0  0  0
  1 23  1  0  0  0  0
  2  6  1  0  0  0  0
  2 11  1  0  0  0  0
  2 12  1  0  0  0  0
  3 11  2  0  0  0  0
  3 17  1  0  0  0  0
  4 16  1  0  0  0  0
  4 17  2  0  0  0  0
  5 16  1  0  0  0  0
  5 42  1  0  0  0  0
  5 43  1  0  0  0  0
  6  7  1  0  0  0  0
  6  8  1  0  0  0  0
  6 29  1  0  0  0  0
  7  9  1  0  0  0  0
  7 30  1  0  0  0  0
  7 31  1  0  0  0  0
  8 10  1  0  0  0  0
  8 32  1  0  0  0  0
  8 33  1  0  0  0  0
  9 10  1  0  0  0  0
  9 34  1  0  0  0  0
  9 35  1  0  0  0  0
 10 36  1  0  0  0  0
 10 37  1  0  0  0  0
 11 13  1  0  0  0  0
 12 14  2  0  0  0  0
 12 38  1  0  0  0  0
 13 14  1  0  0  0  0
 13 16  2  0  0  0  0
 14 15  1  0  0  0  0
 15 18  2  0  0  0  0
 15 19  1  0  0  0  0
 17 39  1  0  0  0  0
 18 20  1  0  0  0  0
 18 40  1  0  0  0  0
 19 21  2  0  0  0  0
 19 41  1  0  0  0  0
 20 22  2  0  0  0  0
 20 44  1  0  0  0  0
 21 22  1  0  0  0  0
 21 45  1  0  0  0  0
 23 24  2  0  0  0  0
 23 25  1  0  0  0  0
 24 26  1  0  0  0  0
 24 46  1  0  0  0  0
 25 27  2  0  0  0  0
 25 47  1  0  0  0  0
 26 28  2  0  0  0  0
 26 48  1  0  0  0  0
 27 28  1  0  0  0  0
 27 49  1  0  0  0  0
 28 50  1  0  0  0  0
M  END
> <PUBCHEM_COMPOUND_CID>
6603792

> <PUBCHEM_COMPOUND_CANONICALIZED>
1

> <PUBCHEM_CACTVS_COMPLEXITY>
497

> <PUBCHEM_CACTVS_HBOND_ACCEPTOR>
4

> <PUBCHEM_CACTVS_HBOND_DONOR>
1

> <PUBCHEM_CACTVS_ROTATABLE_BOND>
4

> <PUBCHEM_CACTVS_SUBSKEYS>
AAADceB7oAAAAAAAAAAAAAAAAAAAAeIAAAA8YIAAAAAAAFgB/AAAHgAQAAAADCzBmwQ9tt9MFACgAjJnZACCiCkxIKAJ2CAuTJiMLmLE+duGPCjswBPI6CeQwPAOoAAAAAAAAABAAAAAAAAAAAAAAAAAAA==

> <PUBCHEM_IUPAC_OPENEYE_NAME>
7-cyclopentyl-5-(4-phenoxyphenyl)pyrrolo[2,3-d]pyrimidin-4-amine

> <PUBCHEM_IUPAC_CAS_NAME>
7-cyclopentyl-5-(4-phenoxyphenyl)-4-pyrrolo[2,3-d]pyrimidinamine

> <PUBCHEM_IUPAC_NAME_MARKUP>
7-cyclopentyl-5-(4-phenoxyphenyl)pyrrolo[2,3-d]pyrimidin-4-amine

> <PUBCHEM_IUPAC_NAME>
7-cyclopentyl-5-(4-phenoxyphenyl)pyrrolo[2,3-d]pyrimidin-4-amine

> <PUBCHEM_IUPAC_SYSTEMATIC_NAME>
7-cyclopentyl-5-(4-phenoxyphenyl)pyrrolo[2,3-d]pyrimidin-4-amine

> <PUBCHEM_IUPAC_TRADITIONAL_NAME>
[7-cyclopentyl-5-(4-phenoxyphenyl)pyrrolo[2,3-d]pyrimidin-4-yl]amine

> <PUBCHEM_IUPAC_INCHI>
InChI=1S/C23H22N4O/c24-22-21-20(14-27(17-6-4-5-7-17)23(21)26-15-25-22)16-10-12-19(13-11-16)28-18-8-2-1-3-9-18/h1-3,8-15,17H,4-7H2,(H2,24,25,26)

> <PUBCHEM_IUPAC_INCHIKEY>
FMETVQKSDIOGPX-UHFFFAOYSA-N

> <PUBCHEM_XLOGP3_AA>
4.6

> <PUBCHEM_EXACT_MASS>
370.17936134

> <PUBCHEM_MOLECULAR_FORMULA>
C23H22N4O

> <PUBCHEM_MOLECULAR_WEIGHT>
370.4

> <PUBCHEM_SMILES>
C1CCC(C1)N2C=C(C3=C(N=CN=C32)N)C4=CC=C(C=C4)OC5=CC=CC=C5

> <PUBCHEM_OPENEYE_CAN_SMILES>
C1CCC(C1)N2C=C(C3=C(N=CN=C32)N)C4=CC=C(C=C4)OC5=CC=CC=C5

> <PUBCHEM_OPENEYE_ISO_SMILES>
C1CCC(C1)N2C=C(C3=C(N=CN=C32)N)C4=CC=C(C=C4)OC5=CC=CC=C5

> <PUBCHEM_CACTVS_TPSA>
66

> <PUBCHEM_MONOISOTOPIC_WEIGHT>
370.17936134

> <PUBCHEM_TOTAL_CHARGE>
0

> <PUBCHEM_HEAVY_ATOM_COUNT>
28

> <PUBCHEM_ATOM_DEF_STEREO_COUNT>
0

> <PUBCHEM_ATOM_UDEF_STEREO_COUNT>
0

> <PUBCHEM_BOND_DEF_STEREO_COUNT>
0

> <PUBCHEM_BOND_UDEF_STEREO_COUNT>
0

> <PUBCHEM_ISOTOPIC_ATOM_COUNT>
0

> <PUBCHEM_COMPONENT_COUNT>
1

> <PUBCHEM_CACTVS_TAUTO_COUNT>
-1

> <PUBCHEM_COORDINATE_TYPE>
1
5
255

> <PUBCHEM_BONDANNOTATIONS>
11  13  8
12  14  8
13  14  8
13  16  8
15  18  8
15  19  8
18  20  8
19  21  8
2  11  8
2  12  8
20  22  8
21  22  8
23  24  8
23  25  8
24  26  8
25  27  8
26  28  8
27  28  8
3  11  8
3  17  8
4  16  8
4  17  8

$$$$
