11843159
  -OEChem-03202506022D

 96100  0     0  0  0  0  0  0999 V2000
    8.0622    2.2500    0.0000 O   0  0  0  0  0  0  0  0  0  0  0  0
    6.3301    1.2500    0.0000 O   0  0  0  0  0  0  0  0  0  0  0  0
    9.7942    1.2500    0.0000 O   0  0  0  0  0  0  0  0  0  0  0  0
    7.1962   -6.2500    0.0000 O   0  0  0  0  0  0  0  0  0  0  0  0
    6.3301   -6.7500    0.0000 O   0  0  0  0  0  0  0  0  0  0  0  0
    2.8660   -6.7500    0.0000 O   0  0  0  0  0  0  0  0  0  0  0  0
    8.0622   -4.7500    0.0000 O   0  0  0  0  0  0  0  0  0  0  0  0
    9.7942    5.2500    0.0000 N   0  0  0  0  0  0  0  0  0  0  0  0
    9.7942    7.2500    0.0000 N   0  0  0  0  0  0  0  0  0  0  0  0
    8.0622   -1.7500    0.0000 N   0  0  0  0  0  0  0  0  0  0  0  0
    6.3301   -4.7500    0.0000 N   0  0  0  0  0  0  0  0  0  0  0  0
    7.1962   -3.2500    0.0000 N   0  0  0  0  0  0  0  0  0  0  0  0
    6.3301   -1.7500    0.0000 N   0  0  0  0  0  0  0  0  0  0  0  0
   10.6603    5.7500    0.0000 C   0  0  0  0  0  0  0  0  0  0  0  0
    8.9282    5.7500    0.0000 C   0  0  0  0  0  0  0  0  0  0  0  0
   10.6603    6.7500    0.0000 C   0  0  0  0  0  0  0  0  0  0  0  0
    8.9282    6.7500    0.0000 C   0  0  0  0  0  0  0  0  0  0  0  0
    9.7942    4.2500    0.0000 C   0  0  0  0  0  0  0  0  0  0  0  0
    8.9282    3.7500    0.0000 C   0  0  0  0  0  0  0  0  0  0  0  0
    9.7942    8.2500    0.0000 C   0  0  0  0  0  0  0  0  0  0  0  0
    8.9282    2.7500    0.0000 C   0  0  0  0  0  0  0  0  0  0  0  0
    8.0622    1.2500    0.0000 C   0  0  0  0  0  0  0  0  0  0  0  0
    7.1962    0.7500    0.0000 C   0  0  0  0  0  0  0  0  0  0  0  0
    8.9282    0.7500    0.0000 C   0  0  0  0  0  0  0  0  0  0  0  0
    7.1962   -0.2500    0.0000 C   0  0  0  0  0  0  0  0  0  0  0  0
    8.9282   -0.2500    0.0000 C   0  0  0  0  0  0  0  0  0  0  0  0
    8.0622   -0.7500    0.0000 C   0  0  0  0  0  0  0  0  0  0  0  0
    5.4641    0.7500    0.0000 C   0  0  0  0  0  0  0  0  0  0  0  0
   10.6603    0.7500    0.0000 C   0  0  0  0  0  0  0  0  0  0  0  0
    7.1962   -2.2500    0.0000 C   0  0  0  0  0  0  0  0  0  0  0  0
    6.3301   -3.7500    0.0000 C   0  0  0  0  0  0  0  0  0  0  0  0
    5.4641   -5.2500    0.0000 C   0  0  0  0  0  0  0  0  0  0  0  0
    5.4641   -3.2500    0.0000 C   0  0  0  0  0  0  0  0  0  0  0  0
    5.4641   -6.2500    0.0000 C   0  0  0  0  0  0  0  0  0  0  0  0
    8.0622   -6.7500    0.0000 C   0  0  0  0  0  0  0  0  0  0  0  0
    7.1962   -5.2500    0.0000 C   0  0  0  0  0  0  0  0  0  0  0  0
    4.5981   -4.7500    0.0000 C   0  0  0  0  0  0  0  0  0  0  0  0
    5.4641   -2.2500    0.0000 C   0  0  0  0  0  0  0  0  0  0  0  0
    8.9282   -6.2500    0.0000 C   0  0  0  0  0  0  0  0  0  0  0  0
    8.0622   -7.7500    0.0000 C   0  0  0  0  0  0  0  0  0  0  0  0
    4.5981   -6.7500    0.0000 C   0  0  0  0  0  0  0  0  0  0  0  0
    3.7320   -5.2500    0.0000 C   0  0  0  0  0  0  0  0  0  0  0  0
    3.7320   -6.2500    0.0000 C   0  0  0  0  0  0  0  0  0  0  0  0
    9.7942   -6.7500    0.0000 C   0  0  0  0  0  0  0  0  0  0  0  0
    8.9282   -8.2500    0.0000 C   0  0  0  0  0  0  0  0  0  0  0  0
    9.7942   -7.7500    0.0000 C   0  0  0  0  0  0  0  0  0  0  0  0
    8.9282   -5.2500    0.0000 C   0  0  0  0  0  0  0  0  0  0  0  0
    7.1962   -8.2500    0.0000 C   0  0  0  0  0  0  0  0  0  0  0  0
    6.3301   -7.7500    0.0000 C   0  0  0  0  0  0  0  0  0  0  0  0
    2.0000   -6.2500    0.0000 C   0  0  0  0  0  0  0  0  0  0  0  0
   10.8723    5.1674    0.0000 H   0  0  0  0  0  0  0  0  0  0  0  0
   11.2708    5.8577    0.0000 H   0  0  0  0  0  0  0  0  0  0  0  0
    8.3176    5.8577    0.0000 H   0  0  0  0  0  0  0  0  0  0  0  0
    8.7162    5.1674    0.0000 H   0  0  0  0  0  0  0  0  0  0  0  0
   11.2708    6.6423    0.0000 H   0  0  0  0  0  0  0  0  0  0  0  0
   10.8723    7.3326    0.0000 H   0  0  0  0  0  0  0  0  0  0  0  0
    8.7162    7.3326    0.0000 H   0  0  0  0  0  0  0  0  0  0  0  0
    8.3176    6.6423    0.0000 H   0  0  0  0  0  0  0  0  0  0  0  0
   10.0063    3.6674    0.0000 H   0  0  0  0  0  0  0  0  0  0  0  0
   10.4048    4.3577    0.0000 H   0  0  0  0  0  0  0  0  0  0  0  0
    8.7162    4.3326    0.0000 H   0  0  0  0  0  0  0  0  0  0  0  0
    8.3176    3.6423    0.0000 H   0  0  0  0  0  0  0  0  0  0  0  0
   10.4142    8.2500    0.0000 H   0  0  0  0  0  0  0  0  0  0  0  0
    9.7942    8.8700    0.0000 H   0  0  0  0  0  0  0  0  0  0  0  0
    9.1742    8.2500    0.0000 H   0  0  0  0  0  0  0  0  0  0  0  0
    9.1403    2.1674    0.0000 H   0  0  0  0  0  0  0  0  0  0  0  0
    9.5388    2.8577    0.0000 H   0  0  0  0  0  0  0  0  0  0  0  0
    6.6592   -0.5600    0.0000 H   0  0  0  0  0  0  0  0  0  0  0  0
    9.4651   -0.5600    0.0000 H   0  0  0  0  0  0  0  0  0  0  0  0
    8.5991   -2.0600    0.0000 H   0  0  0  0  0  0  0  0  0  0  0  0
    5.1541    1.2869    0.0000 H   0  0  0  0  0  0  0  0  0  0  0  0
    4.9272    0.4400    0.0000 H   0  0  0  0  0  0  0  0  0  0  0  0
    5.7741    0.2131    0.0000 H   0  0  0  0  0  0  0  0  0  0  0  0
   10.3503    0.2131    0.0000 H   0  0  0  0  0  0  0  0  0  0  0  0
   11.1972    0.4400    0.0000 H   0  0  0  0  0  0  0  0  0  0  0  0
   10.9703    1.2869    0.0000 H   0  0  0  0  0  0  0  0  0  0  0  0
    4.9272   -3.5600    0.0000 H   0  0  0  0  0  0  0  0  0  0  0  0
    4.5981   -4.1300    0.0000 H   0  0  0  0  0  0  0  0  0  0  0  0
    4.9272   -1.9400    0.0000 H   0  0  0  0  0  0  0  0  0  0  0  0
    4.5981   -7.3700    0.0000 H   0  0  0  0  0  0  0  0  0  0  0  0
    3.1951   -4.9400    0.0000 H   0  0  0  0  0  0  0  0  0  0  0  0
   10.3312   -6.4400    0.0000 H   0  0  0  0  0  0  0  0  0  0  0  0
    8.9282   -8.8700    0.0000 H   0  0  0  0  0  0  0  0  0  0  0  0
   10.3312   -8.0600    0.0000 H   0  0  0  0  0  0  0  0  0  0  0  0
    9.5482   -5.2500    0.0000 H   0  0  0  0  0  0  0  0  0  0  0  0
    8.9282   -4.6300    0.0000 H   0  0  0  0  0  0  0  0  0  0  0  0
    8.3082   -5.2500    0.0000 H   0  0  0  0  0  0  0  0  0  0  0  0
    6.8862   -7.7131    0.0000 H   0  0  0  0  0  0  0  0  0  0  0  0
    6.6592   -8.5600    0.0000 H   0  0  0  0  0  0  0  0  0  0  0  0
    7.5062   -8.7869    0.0000 H   0  0  0  0  0  0  0  0  0  0  0  0
    5.7101   -7.7500    0.0000 H   0  0  0  0  0  0  0  0  0  0  0  0
    6.3301   -8.3700    0.0000 H   0  0  0  0  0  0  0  0  0  0  0  0
    6.9501   -7.7500    0.0000 H   0  0  0  0  0  0  0  0  0  0  0  0
    2.3100   -5.7131    0.0000 H   0  0  0  0  0  0  0  0  0  0  0  0
    1.4631   -5.9400    0.0000 H   0  0  0  0  0  0  0  0  0  0  0  0
    1.6900   -6.7869    0.0000 H   0  0  0  0  0  0  0  0  0  0  0  0
  1 21  1  0  0  0  0
  1 22  1  0  0  0  0
  2 23  1  0  0  0  0
  2 28  1  0  0  0  0
  3 24  1  0  0  0  0
  3 29  1  0  0  0  0
  4 35  1  0  0  0  0
  4 36  1  0  0  0  0
  5 34  1  0  0  0  0
  5 49  1  0  0  0  0
  6 43  1  0  0  0  0
  6 50  1  0  0  0  0
  7 36  2  0  0  0  0
  8 14  1  0  0  0  0
  8 15  1  0  0  0  0
  8 18  1  0  0  0  0
  9 16  1  0  0  0  0
  9 17  1  0  0  0  0
  9 20  1  0  0  0  0
 10 27  1  0  0  0  0
 10 30  1  0  0  0  0
 10 70  1  0  0  0  0
 11 31  1  0  0  0  0
 11 32  1  0  0  0  0
 11 36  1  0  0  0  0
 12 30  1  0  0  0  0
 12 31  2  0  0  0  0
 13 30  2  0  0  0  0
 13 38  1  0  0  0  0
 14 16  1  0  0  0  0
 14 51  1  0  0  0  0
 14 52  1  0  0  0  0
 15 17  1  0  0  0  0
 15 53  1  0  0  0  0
 15 54  1  0  0  0  0
 16 55  1  0  0  0  0
 16 56  1  0  0  0  0
 17 57  1  0  0  0  0
 17 58  1  0  0  0  0
 18 19  1  0  0  0  0
 18 59  1  0  0  0  0
 18 60  1  0  0  0  0
 19 21  1  0  0  0  0
 19 61  1  0  0  0  0
 19 62  1  0  0  0  0
 20 63  1  0  0  0  0
 20 64  1  0  0  0  0
 20 65  1  0  0  0  0
 21 66  1  0  0  0  0
 21 67  1  0  0  0  0
 22 23  2  0  0  0  0
 22 24  1  0  0  0  0
 23 25  1  0  0  0  0
 24 26  2  0  0  0  0
 25 27  2  0  0  0  0
 25 68  1  0  0  0  0
 26 27  1  0  0  0  0
 26 69  1  0  0  0  0
 28 71  1  0  0  0  0
 28 72  1  0  0  0  0
 28 73  1  0  0  0  0
 29 74  1  0  0  0  0
 29 75  1  0  0  0  0
 29 76  1  0  0  0  0
 31 33  1  0  0  0  0
 32 34  2  0  0  0  0
 32 37  1  0  0  0  0
 33 38  2  0  0  0  0
 33 77  1  0  0  0  0
 34 41  1  0  0  0  0
 35 39  2  0  0  0  0
 35 40  1  0  0  0  0
 37 42  2  0  0  0  0
 37 78  1  0  0  0  0
 38 79  1  0  0  0  0
 39 44  1  0  0  0  0
 39 47  1  0  0  0  0
 40 45  2  0  0  0  0
 40 48  1  0  0  0  0
 41 43  2  0  0  0  0
 41 80  1  0  0  0  0
 42 43  1  0  0  0  0
 42 81  1  0  0  0  0
 44 46  2  0  0  0  0
 44 82  1  0  0  0  0
 45 46  1  0  0  0  0
 45 83  1  0  0  0  0
 46 84  1  0  0  0  0
 47 85  1  0  0  0  0
 47 86  1  0  0  0  0
 47 87  1  0  0  0  0
 48 88  1  0  0  0  0
 48 89  1  0  0  0  0
 48 90  1  0  0  0  0
 49 91  1  0  0  0  0
 49 92  1  0  0  0  0
 49 93  1  0  0  0  0
 50 94  1  0  0  0  0
 50 95  1  0  0  0  0
 50 96  1  0  0  0  0
M  END
> <PUBCHEM_COMPOUND_CID>
11843159

> <PUBCHEM_COMPOUND_CANONICALIZED>
1

> <PUBCHEM_CACTVS_COMPLEXITY>
983

> <PUBCHEM_CACTVS_HBOND_ACCEPTOR>
12

> <PUBCHEM_CACTVS_HBOND_DONOR>
1

> <PUBCHEM_CACTVS_ROTATABLE_BOND>
15

> <PUBCHEM_CACTVS_SUBSKEYS>
AAADcfB/uAAAAAAAAAAAAAAAAAAAAAAAAAA8eMECAAAAAAAB1AAAHgAQAAAADAzhmgY//pfIFACoAjZnfACCiCkxIqAJ2CA/7JiPb+LE+dufPirv1R/a6Cew8G8OAEACCgAIUAAAgAQUABCgAAAAAAAAAA==

> <PUBCHEM_IUPAC_OPENEYE_NAME>
(2,6-dimethylphenyl) N-[2-[3,5-dimethoxy-4-[3-(4-methylpiperazin-1-yl)propoxy]anilino]pyrimidin-4-yl]-N-(2,4-dimethoxyphenyl)carbamate

> <PUBCHEM_IUPAC_CAS_NAME>
N-[2-[3,5-dimethoxy-4-[3-(4-methyl-1-piperazinyl)propoxy]anilino]-4-pyrimidinyl]-N-(2,4-dimethoxyphenyl)carbamic acid (2,6-dimethylphenyl) ester

> <PUBCHEM_IUPAC_NAME_MARKUP>
(2,6-dimethylphenyl) <I>N</I>-[2-[3,5-dimethoxy-4-[3-(4-methylpiperazin-1-yl)propoxy]anilino]pyrimidin-4-yl]-<I>N</I>-(2,4-dimethoxyphenyl)carbamate

> <PUBCHEM_IUPAC_NAME>
(2,6-dimethylphenyl) N-[2-[3,5-dimethoxy-4-[3-(4-methylpiperazin-1-yl)propoxy]anilino]pyrimidin-4-yl]-N-(2,4-dimethoxyphenyl)carbamate

> <PUBCHEM_IUPAC_SYSTEMATIC_NAME>
(2,6-dimethylphenyl) N-[2-[[3,5-dimethoxy-4-[3-(4-methylpiperazin-1-yl)propoxy]phenyl]amino]pyrimidin-4-yl]-N-(2,4-dimethoxyphenyl)carbamate

> <PUBCHEM_IUPAC_TRADITIONAL_NAME>
N-[2-[3,5-dimethoxy-4-[3-(4-methylpiperazino)propoxy]anilino]pyrimidin-4-yl]-N-(2,4-dimethoxyphenyl)carbamic acid (2,6-dimethylphenyl) ester

> <PUBCHEM_IUPAC_INCHI>
InChI=1S/C37H46N6O7/c1-25-10-8-11-26(2)34(25)50-37(44)43(29-13-12-28(45-4)24-30(29)46-5)33-14-15-38-36(40-33)39-27-22-31(47-6)35(32(23-27)48-7)49-21-9-16-42-19-17-41(3)18-20-42/h8,10-15,22-24H,9,16-21H2,1-7H3,(H,38,39,40)

> <PUBCHEM_IUPAC_INCHIKEY>
VSJXTUFWPAOYLC-UHFFFAOYSA-N

> <PUBCHEM_XLOGP3_AA>
6.1

> <PUBCHEM_EXACT_MASS>
686.34279783

> <PUBCHEM_MOLECULAR_FORMULA>
C37H46N6O7

> <PUBCHEM_MOLECULAR_WEIGHT>
686.8

> <PUBCHEM_SMILES>
CC1=C(C(=CC=C1)C)OC(=O)N(C2=C(C=C(C=C2)OC)OC)C3=NC(=NC=C3)NC4=CC(=C(C(=C4)OC)OCCCN5CCN(CC5)C)OC

> <PUBCHEM_OPENEYE_CAN_SMILES>
CC1=C(C(=CC=C1)C)OC(=O)N(C2=C(C=C(C=C2)OC)OC)C3=NC(=NC=C3)NC4=CC(=C(C(=C4)OC)OCCCN5CCN(CC5)C)OC

> <PUBCHEM_OPENEYE_ISO_SMILES>
CC1=C(C(=CC=C1)C)OC(=O)N(C2=C(C=C(C=C2)OC)OC)C3=NC(=NC=C3)NC4=CC(=C(C(=C4)OC)OCCCN5CCN(CC5)C)OC

> <PUBCHEM_CACTVS_TPSA>
120

> <PUBCHEM_MONOISOTOPIC_WEIGHT>
686.34279783

> <PUBCHEM_TOTAL_CHARGE>
0

> <PUBCHEM_HEAVY_ATOM_COUNT>
50

> <PUBCHEM_ATOM_DEF_STEREO_COUNT>
0

> <PUBCHEM_ATOM_UDEF_STEREO_COUNT>
0

> <PUBCHEM_BOND_DEF_STEREO_COUNT>
0

> <PUBCHEM_BOND_UDEF_STEREO_COUNT>
0

> <PUBCHEM_ISOTOPIC_ATOM_COUNT>
0

> <PUBCHEM_COMPONENT_COUNT>
1

> <PUBCHEM_CACTVS_TAUTO_COUNT>
-1

> <PUBCHEM_COORDINATE_TYPE>
1
5
255

> <PUBCHEM_BONDANNOTATIONS>
12  30  8
12  31  8
13  30  8
13  38  8
22  23  8
22  24  8
23  25  8
24  26  8
25  27  8
26  27  8
31  33  8
32  34  8
32  37  8
33  38  8
34  41  8
35  39  8
35  40  8
37  42  8
39  44  8
40  45  8
41  43  8
42  43  8
44  46  8
45  46  8

$$$$
