49830768
  -OEChem-03202502102D

 51 54  0     0  0  0  0  0  0999 V2000
    3.7320   -1.9400    0.0000 Cl  0  0  0  0  0  0  0  0  0  0  0  0
    2.0000    1.0600    0.0000 O   0  0  0  0  0  0  0  0  0  0  0  0
    3.7320    0.0600    0.0000 N   0  0  0  0  0  0  0  0  0  0  0  0
    8.0622   -0.4400    0.0000 N   0  0  0  0  0  0  0  0  0  0  0  0
    7.1962   -1.9400    0.0000 N   0  0  0  0  0  0  0  0  0  0  0  0
   10.7404   -1.7447    0.0000 N   0  0  0  0  0  0  0  0  0  0  0  0
    8.9282   -1.9400    0.0000 N   0  0  0  0  0  0  0  0  0  0  0  0
    2.8660   -0.4400    0.0000 C   0  0  0  0  0  0  0  0  0  0  0  0
    3.7320    1.0600    0.0000 C   0  0  0  0  0  0  0  0  0  0  0  0
    8.0622    1.5600    0.0000 C   0  0  0  0  0  0  0  0  0  0  0  0
    8.9282    1.0600    0.0000 C   0  0  0  0  0  0  0  0  0  0  0  0
    2.0000    0.0600    0.0000 C   0  0  0  0  0  0  0  0  0  0  0  0
    2.8660    1.5600    0.0000 C   0  0  0  0  0  0  0  0  0  0  0  0
    4.5981   -0.4400    0.0000 C   0  0  0  0  0  0  0  0  0  0  0  0
    8.9282    0.0600    0.0000 C   0  0  0  0  0  0  0  0  0  0  0  0
    9.7942   -0.4400    0.0000 C   0  0  0  0  0  0  0  0  0  0  0  0
    8.0622    2.5600    0.0000 C   0  0  0  0  0  0  0  0  0  0  0  0
    7.1962    1.0600    0.0000 C   0  0  0  0  0  0  0  0  0  0  0  0
    4.5981   -1.4400    0.0000 C   0  0  0  0  0  0  0  0  0  0  0  0
    5.4641    0.0600    0.0000 C   0  0  0  0  0  0  0  0  0  0  0  0
    9.7942   -1.4400    0.0000 C   0  0  0  0  0  0  0  0  0  0  0  0
    6.3301   -1.4400    0.0000 C   0  0  0  0  0  0  0  0  0  0  0  0
    8.0622   -1.4400    0.0000 C   0  0  0  0  0  0  0  0  0  0  0  0
    5.4641   -1.9400    0.0000 C   0  0  0  0  0  0  0  0  0  0  0  0
    6.3301   -0.4400    0.0000 C   0  0  0  0  0  0  0  0  0  0  0  0
   10.7404   -0.1353    0.0000 C   0  0  0  0  0  0  0  0  0  0  0  0
   11.3241   -0.9400    0.0000 C   0  0  0  0  0  0  0  0  0  0  0  0
    2.4675   -0.9149    0.0000 H   0  0  0  0  0  0  0  0  0  0  0  0
    3.2646   -0.9149    0.0000 H   0  0  0  0  0  0  0  0  0  0  0  0
    4.3426    0.9523    0.0000 H   0  0  0  0  0  0  0  0  0  0  0  0
    3.9441    1.6426    0.0000 H   0  0  0  0  0  0  0  0  0  0  0  0
    8.0622    0.9400    0.0000 H   0  0  0  0  0  0  0  0  0  0  0  0
    9.5388    0.9523    0.0000 H   0  0  0  0  0  0  0  0  0  0  0  0
    9.1403    1.6426    0.0000 H   0  0  0  0  0  0  0  0  0  0  0  0
    1.3894    0.1677    0.0000 H   0  0  0  0  0  0  0  0  0  0  0  0
    1.7880   -0.5226    0.0000 H   0  0  0  0  0  0  0  0  0  0  0  0
    3.2646    2.0349    0.0000 H   0  0  0  0  0  0  0  0  0  0  0  0
    2.4675    2.0349    0.0000 H   0  0  0  0  0  0  0  0  0  0  0  0
    8.6822    2.5600    0.0000 H   0  0  0  0  0  0  0  0  0  0  0  0
    8.0622    3.1800    0.0000 H   0  0  0  0  0  0  0  0  0  0  0  0
    7.4422    2.5600    0.0000 H   0  0  0  0  0  0  0  0  0  0  0  0
    6.8862    1.5969    0.0000 H   0  0  0  0  0  0  0  0  0  0  0  0
    6.6592    0.7500    0.0000 H   0  0  0  0  0  0  0  0  0  0  0  0
    7.5062    0.5231    0.0000 H   0  0  0  0  0  0  0  0  0  0  0  0
    5.4641    0.6800    0.0000 H   0  0  0  0  0  0  0  0  0  0  0  0
    5.4641   -2.5600    0.0000 H   0  0  0  0  0  0  0  0  0  0  0  0
    6.8671   -0.1300    0.0000 H   0  0  0  0  0  0  0  0  0  0  0  0
   10.9331    0.4541    0.0000 H   0  0  0  0  0  0  0  0  0  0  0  0
    7.1962   -2.5600    0.0000 H   0  0  0  0  0  0  0  0  0  0  0  0
   10.9331   -2.3340    0.0000 H   0  0  0  0  0  0  0  0  0  0  0  0
   11.9441   -0.9400    0.0000 H   0  0  0  0  0  0  0  0  0  0  0  0
  1 19  1  0  0  0  0
  2 12  1  0  0  0  0
  2 13  1  0  0  0  0
  3  8  1  0  0  0  0
  3  9  1  0  0  0  0
  3 14  1  0  0  0  0
  4 15  1  0  0  0  0
  4 23  2  0  0  0  0
  5 22  1  0  0  0  0
  5 23  1  0  0  0  0
  5 49  1  0  0  0  0
  6 21  1  0  0  0  0
  6 27  1  0  0  0  0
  6 50  1  0  0  0  0
  7 21  2  0  0  0  0
  7 23  1  0  0  0  0
  8 12  1  0  0  0  0
  8 28  1  0  0  0  0
  8 29  1  0  0  0  0
  9 13  1  0  0  0  0
  9 30  1  0  0  0  0
  9 31  1  0  0  0  0
 10 11  1  0  0  0  0
 10 17  1  0  0  0  0
 10 18  1  0  0  0  0
 10 32  1  0  0  0  0
 11 15  1  0  0  0  0
 11 33  1  0  0  0  0
 11 34  1  0  0  0  0
 12 35  1  0  0  0  0
 12 36  1  0  0  0  0
 13 37  1  0  0  0  0
 13 38  1  0  0  0  0
 14 19  2  0  0  0  0
 14 20  1  0  0  0  0
 15 16  2  0  0  0  0
 16 21  1  0  0  0  0
 16 26  1  0  0  0  0
 17 39  1  0  0  0  0
 17 40  1  0  0  0  0
 17 41  1  0  0  0  0
 18 42  1  0  0  0  0
 18 43  1  0  0  0  0
 18 44  1  0  0  0  0
 19 24  1  0  0  0  0
 20 25  2  0  0  0  0
 20 45  1  0  0  0  0
 22 24  2  0  0  0  0
 22 25  1  0  0  0  0
 24 46  1  0  0  0  0
 25 47  1  0  0  0  0
 26 27  2  0  0  0  0
 26 48  1  0  0  0  0
 27 51  1  0  0  0  0
M  END
> <PUBCHEM_COMPOUND_CID>
49830768

> <PUBCHEM_COMPOUND_CANONICALIZED>
1

> <PUBCHEM_CACTVS_COMPLEXITY>
475

> <PUBCHEM_CACTVS_HBOND_ACCEPTOR>
5

> <PUBCHEM_CACTVS_HBOND_DONOR>
2

> <PUBCHEM_CACTVS_ROTATABLE_BOND>
5

> <PUBCHEM_CACTVS_SUBSKEYS>
AAADceB7oAAEAAAAAAAAAAAAAAAAAWAAAAA8WIAAAAAAAFgB/AAAHgIQAAAADQrhnyY/8N/JlACgAzZnZACCgCmxB6AJ2aA4ZpiKKOLB29HHJAhokALYyCcQgEAOAACAAAIAABAAAQAABAAAIAAAAAAAAA==

> <PUBCHEM_IUPAC_OPENEYE_NAME>
N-(3-chloro-4-morpholino-phenyl)-4-isobutyl-7H-pyrrolo[2,3-d]pyrimidin-2-amine

> <PUBCHEM_IUPAC_CAS_NAME>
N-[3-chloro-4-(4-morpholinyl)phenyl]-4-(2-methylpropyl)-7H-pyrrolo[2,3-d]pyrimidin-2-amine

> <PUBCHEM_IUPAC_NAME_MARKUP>
<I>N</I>-(3-chloro-4-morpholin-4-ylphenyl)-4-(2-methylpropyl)-7<I>H</I>-pyrrolo[2,3-d]pyrimidin-2-amine

> <PUBCHEM_IUPAC_NAME>
N-(3-chloro-4-morpholin-4-ylphenyl)-4-(2-methylpropyl)-7H-pyrrolo[2,3-d]pyrimidin-2-amine

> <PUBCHEM_IUPAC_SYSTEMATIC_NAME>
N-(3-chloranyl-4-morpholin-4-yl-phenyl)-4-(2-methylpropyl)-7H-pyrrolo[2,3-d]pyrimidin-2-amine

> <PUBCHEM_IUPAC_TRADITIONAL_NAME>
(3-chloro-4-morpholino-phenyl)-(4-isobutyl-7H-pyrrolo[2,3-d]pyrimidin-2-yl)amine

> <PUBCHEM_IUPAC_INCHI>
InChI=1S/C20H24ClN5O/c1-13(2)11-17-15-5-6-22-19(15)25-20(24-17)23-14-3-4-18(16(21)12-14)26-7-9-27-10-8-26/h3-6,12-13H,7-11H2,1-2H3,(H2,22,23,24,25)

> <PUBCHEM_IUPAC_INCHIKEY>
GQVOLDFSBVIZQO-UHFFFAOYSA-N

> <PUBCHEM_XLOGP3_AA>
4.5

> <PUBCHEM_EXACT_MASS>
385.1669381

> <PUBCHEM_MOLECULAR_FORMULA>
C20H24ClN5O

> <PUBCHEM_MOLECULAR_WEIGHT>
385.9

> <PUBCHEM_SMILES>
CC(C)CC1=C2C=CNC2=NC(=N1)NC3=CC(=C(C=C3)N4CCOCC4)Cl

> <PUBCHEM_OPENEYE_CAN_SMILES>
CC(C)CC1=C2C=CNC2=NC(=N1)NC3=CC(=C(C=C3)N4CCOCC4)Cl

> <PUBCHEM_OPENEYE_ISO_SMILES>
CC(C)CC1=C2C=CNC2=NC(=N1)NC3=CC(=C(C=C3)N4CCOCC4)Cl

> <PUBCHEM_CACTVS_TPSA>
66.1

> <PUBCHEM_MONOISOTOPIC_WEIGHT>
385.1669381

> <PUBCHEM_TOTAL_CHARGE>
0

> <PUBCHEM_HEAVY_ATOM_COUNT>
27

> <PUBCHEM_ATOM_DEF_STEREO_COUNT>
0

> <PUBCHEM_ATOM_UDEF_STEREO_COUNT>
0

> <PUBCHEM_BOND_DEF_STEREO_COUNT>
0

> <PUBCHEM_BOND_UDEF_STEREO_COUNT>
0

> <PUBCHEM_ISOTOPIC_ATOM_COUNT>
0

> <PUBCHEM_COMPONENT_COUNT>
1

> <PUBCHEM_CACTVS_TAUTO_COUNT>
-1

> <PUBCHEM_COORDINATE_TYPE>
1
5
255

> <PUBCHEM_BONDANNOTATIONS>
14  19  8
14  20  8
15  16  8
16  21  8
16  26  8
19  24  8
20  25  8
22  24  8
22  25  8
26  27  8
4  15  8
4  23  8
6  21  8
6  27  8
7  21  8
7  23  8

$$$$
