49831038
  -OEChem-03202501492D

 54 57  0     0  0  0  0  0  0999 V2000
    6.5649   -1.7480    0.0000 O   0  0  0  0  0  0  0  0  0  0  0  0
    4.9185   -2.2861    0.0000 O   0  0  0  0  0  0  0  0  0  0  0  0
    5.0000    2.7787    0.0000 N   0  0  0  0  0  0  0  0  0  0  0  0
    6.5397    3.2761    0.0000 N   0  0  0  0  0  0  0  0  0  0  0  0
    5.2757   -0.5913    0.0000 N   0  0  0  0  0  0  0  0  0  0  0  0
    4.0000    2.7804    0.0000 C   0  0  0  0  0  0  0  0  0  0  0  0
    3.5015    3.6473    0.0000 C   0  0  0  0  0  0  0  0  0  0  0  0
    3.4985    1.9153    0.0000 C   0  0  0  0  0  0  0  0  0  0  0  0
    2.5015    3.6491    0.0000 C   0  0  0  0  0  0  0  0  0  0  0  0
    2.4985    1.9170    0.0000 C   0  0  0  0  0  0  0  0  0  0  0  0
    2.0000    2.7839    0.0000 C   0  0  0  0  0  0  0  0  0  0  0  0
    5.5864    1.9687    0.0000 C   0  0  0  0  0  0  0  0  0  0  0  0
    5.5892    3.5867    0.0000 C   0  0  0  0  0  0  0  0  0  0  0  0
    5.2757    1.0182    0.0000 C   0  0  0  0  0  0  0  0  0  0  0  0
    6.5380    2.2761    0.0000 C   0  0  0  0  0  0  0  0  0  0  0  0
    4.3295    0.7134    0.0000 C   0  0  0  0  0  0  0  0  0  0  0  0
    5.8593    0.2134    0.0000 C   0  0  0  0  0  0  0  0  0  0  0  0
    4.3295   -0.2866    0.0000 C   0  0  0  0  0  0  0  0  0  0  0  0
    3.4635    1.2134    0.0000 C   0  0  0  0  0  0  0  0  0  0  0  0
    3.4635   -0.7866    0.0000 C   0  0  0  0  0  0  0  0  0  0  0  0
    5.5864   -1.5418    0.0000 C   0  0  0  0  0  0  0  0  0  0  0  0
    6.8756   -2.6986    0.0000 C   0  0  0  0  0  0  0  0  0  0  0  0
    2.5974    0.7134    0.0000 C   0  0  0  0  0  0  0  0  0  0  0  0
    2.5974   -0.2866    0.0000 C   0  0  0  0  0  0  0  0  0  0  0  0
    7.1862   -3.6491    0.0000 C   0  0  0  0  0  0  0  0  0  0  0  0
    7.8261   -2.3879    0.0000 C   0  0  0  0  0  0  0  0  0  0  0  0
    5.9250   -3.0092    0.0000 C   0  0  0  0  0  0  0  0  0  0  0  0
    4.3109    3.3168    0.0000 H   0  0  0  0  0  0  0  0  0  0  0  0
    4.0845    3.8584    0.0000 H   0  0  0  0  0  0  0  0  0  0  0  0
    3.3949    4.2581    0.0000 H   0  0  0  0  0  0  0  0  0  0  0  0
    3.3898    1.3049    0.0000 H   0  0  0  0  0  0  0  0  0  0  0  0
    4.0807    1.7022    0.0000 H   0  0  0  0  0  0  0  0  0  0  0  0
    2.6102    4.2595    0.0000 H   0  0  0  0  0  0  0  0  0  0  0  0
    1.9193    3.8621    0.0000 H   0  0  0  0  0  0  0  0  0  0  0  0
    1.9155    1.7060    0.0000 H   0  0  0  0  0  0  0  0  0  0  0  0
    2.6051    1.3063    0.0000 H   0  0  0  0  0  0  0  0  0  0  0  0
    1.5257    3.1833    0.0000 H   0  0  0  0  0  0  0  0  0  0  0  0
    1.5244    2.3862    0.0000 H   0  0  0  0  0  0  0  0  0  0  0  0
    5.3986    4.1767    0.0000 H   0  0  0  0  0  0  0  0  0  0  0  0
    7.0389    1.9108    0.0000 H   0  0  0  0  0  0  0  0  0  0  0  0
    6.4793    0.2134    0.0000 H   0  0  0  0  0  0  0  0  0  0  0  0
    3.4635    1.8334    0.0000 H   0  0  0  0  0  0  0  0  0  0  0  0
    3.4635   -1.4066    0.0000 H   0  0  0  0  0  0  0  0  0  0  0  0
    2.0605    1.0234    0.0000 H   0  0  0  0  0  0  0  0  0  0  0  0
    2.0605   -0.5966    0.0000 H   0  0  0  0  0  0  0  0  0  0  0  0
    6.5969   -3.8417    0.0000 H   0  0  0  0  0  0  0  0  0  0  0  0
    7.3788   -4.2384    0.0000 H   0  0  0  0  0  0  0  0  0  0  0  0
    7.7755   -3.4565    0.0000 H   0  0  0  0  0  0  0  0  0  0  0  0
    8.0187   -2.9772    0.0000 H   0  0  0  0  0  0  0  0  0  0  0  0
    8.4154   -2.1953    0.0000 H   0  0  0  0  0  0  0  0  0  0  0  0
    7.6335   -1.7986    0.0000 H   0  0  0  0  0  0  0  0  0  0  0  0
    5.7324   -2.4199    0.0000 H   0  0  0  0  0  0  0  0  0  0  0  0
    5.3357   -3.2018    0.0000 H   0  0  0  0  0  0  0  0  0  0  0  0
    6.1176   -3.5985    0.0000 H   0  0  0  0  0  0  0  0  0  0  0  0
  1 21  1  0  0  0  0
  1 22  1  0  0  0  0
  2 21  2  0  0  0  0
  3  6  1  0  0  0  0
  3 12  1  0  0  0  0
  3 13  1  0  0  0  0
  4 13  2  0  0  0  0
  4 15  1  0  0  0  0
  5 17  1  0  0  0  0
  5 18  1  0  0  0  0
  5 21  1  0  0  0  0
  6  7  1  0  0  0  0
  6  8  1  0  0  0  0
  6 28  1  0  0  0  0
  7  9  1  0  0  0  0
  7 29  1  0  0  0  0
  7 30  1  0  0  0  0
  8 10  1  0  0  0  0
  8 31  1  0  0  0  0
  8 32  1  0  0  0  0
  9 11  1  0  0  0  0
  9 33  1  0  0  0  0
  9 34  1  0  0  0  0
 10 11  1  0  0  0  0
 10 35  1  0  0  0  0
 10 36  1  0  0  0  0
 11 37  1  0  0  0  0
 11 38  1  0  0  0  0
 12 14  1  0  0  0  0
 12 15  2  0  0  0  0
 13 39  1  0  0  0  0
 14 16  1  0  0  0  0
 14 17  2  0  0  0  0
 15 40  1  0  0  0  0
 16 18  1  0  0  0  0
 16 19  2  0  0  0  0
 17 41  1  0  0  0  0
 18 20  2  0  0  0  0
 19 23  1  0  0  0  0
 19 42  1  0  0  0  0
 20 24  1  0  0  0  0
 20 43  1  0  0  0  0
 22 25  1  0  0  0  0
 22 26  1  0  0  0  0
 22 27  1  0  0  0  0
 23 24  2  0  0  0  0
 23 44  1  0  0  0  0
 24 45  1  0  0  0  0
 25 46  1  0  0  0  0
 25 47  1  0  0  0  0
 25 48  1  0  0  0  0
 26 49  1  0  0  0  0
 26 50  1  0  0  0  0
 26 51  1  0  0  0  0
 27 52  1  0  0  0  0
 27 53  1  0  0  0  0
 27 54  1  0  0  0  0
M  END
> <PUBCHEM_COMPOUND_CID>
49831038

> <PUBCHEM_COMPOUND_CANONICALIZED>
1

> <PUBCHEM_CACTVS_COMPLEXITY>
526

> <PUBCHEM_CACTVS_HBOND_ACCEPTOR>
3

> <PUBCHEM_CACTVS_HBOND_DONOR>
0

> <PUBCHEM_CACTVS_ROTATABLE_BOND>
4

> <PUBCHEM_CACTVS_SUBSKEYS>
AAADceB7MAAAAAAAAAAAAAAAAAAAAWLAAAAwYAAAAAAAAFgB/AAAHgAAAAAADGzBngQ/2PcMFACoAzRnfACCgC0xEqAJ2CA4dJiIaOLA2ZGcIAhohgLIyCcQgMAOgAAAAAACAAAAAAAAAAQAAAAAAAAAAA==

> <PUBCHEM_IUPAC_OPENEYE_NAME>
tert-butyl 3-(3-cyclohexylimidazol-4-yl)indole-1-carboxylate

> <PUBCHEM_IUPAC_CAS_NAME>
3-(3-cyclohexyl-4-imidazolyl)-1-indolecarboxylic acid tert-butyl ester

> <PUBCHEM_IUPAC_NAME_MARKUP>
<I>tert</I>-butyl 3-(3-cyclohexylimidazol-4-yl)indole-1-carboxylate

> <PUBCHEM_IUPAC_NAME>
tert-butyl 3-(3-cyclohexylimidazol-4-yl)indole-1-carboxylate

> <PUBCHEM_IUPAC_SYSTEMATIC_NAME>
tert-butyl 3-(3-cyclohexylimidazol-4-yl)indole-1-carboxylate

> <PUBCHEM_IUPAC_TRADITIONAL_NAME>
3-(3-cyclohexylimidazol-4-yl)indole-1-carboxylic acid tert-butyl ester

> <PUBCHEM_IUPAC_INCHI>
InChI=1S/C22H27N3O2/c1-22(2,3)27-21(26)24-14-18(17-11-7-8-12-19(17)24)20-13-23-15-25(20)16-9-5-4-6-10-16/h7-8,11-16H,4-6,9-10H2,1-3H3

> <PUBCHEM_IUPAC_INCHIKEY>
AWRNELHPKGTWCJ-UHFFFAOYSA-N

> <PUBCHEM_XLOGP3_AA>
4.7

> <PUBCHEM_EXACT_MASS>
365.21032711

> <PUBCHEM_MOLECULAR_FORMULA>
C22H27N3O2

> <PUBCHEM_MOLECULAR_WEIGHT>
365.5

> <PUBCHEM_SMILES>
CC(C)(C)OC(=O)N1C=C(C2=CC=CC=C21)C3=CN=CN3C4CCCCC4

> <PUBCHEM_OPENEYE_CAN_SMILES>
CC(C)(C)OC(=O)N1C=C(C2=CC=CC=C21)C3=CN=CN3C4CCCCC4

> <PUBCHEM_OPENEYE_ISO_SMILES>
CC(C)(C)OC(=O)N1C=C(C2=CC=CC=C21)C3=CN=CN3C4CCCCC4

> <PUBCHEM_CACTVS_TPSA>
49.1

> <PUBCHEM_MONOISOTOPIC_WEIGHT>
365.21032711

> <PUBCHEM_TOTAL_CHARGE>
0

> <PUBCHEM_HEAVY_ATOM_COUNT>
27

> <PUBCHEM_ATOM_DEF_STEREO_COUNT>
0

> <PUBCHEM_ATOM_UDEF_STEREO_COUNT>
0

> <PUBCHEM_BOND_DEF_STEREO_COUNT>
0

> <PUBCHEM_BOND_UDEF_STEREO_COUNT>
0

> <PUBCHEM_ISOTOPIC_ATOM_COUNT>
0

> <PUBCHEM_COMPONENT_COUNT>
1

> <PUBCHEM_CACTVS_TAUTO_COUNT>
-1

> <PUBCHEM_COORDINATE_TYPE>
1
5
255

> <PUBCHEM_BONDANNOTATIONS>
12  15  8
14  16  8
14  17  8
16  18  8
16  19  8
18  20  8
19  23  8
20  24  8
23  24  8
3  12  8
3  13  8
4  13  8
4  15  8
5  17  8
5  18  8

$$$$
