49831001
  -OEChem-03202502022D

 42 45  0     0  0  0  0  0  0999 V2000
    4.3211    2.0674    0.0000 O   0  0  0  0  0  0  0  0  0  0  0  0
    8.5458    3.8428    0.0000 O   0  0  0  0  0  0  0  0  0  0  0  0
    3.7320   -0.9321    0.0000 N   0  0  0  0  0  0  0  0  0  0  0  0
    4.6783   -1.2369    0.0000 N   0  0  0  0  0  0  0  0  0  0  0  0
    5.9674    1.5293    0.0000 N   0  0  0  0  0  0  0  0  0  0  0  0
    2.8660    0.5679    0.0000 N   0  0  0  0  0  0  0  0  0  0  0  0
    3.7320    0.0679    0.0000 C   0  0  0  0  0  0  0  0  0  0  0  0
    2.8660   -1.4321    0.0000 C   0  0  0  0  0  0  0  0  0  0  0  0
    4.6783    0.3726    0.0000 C   0  0  0  0  0  0  0  0  0  0  0  0
    2.8660   -2.4321    0.0000 C   0  0  0  0  0  0  0  0  0  0  0  0
    5.2619   -0.4321    0.0000 C   0  0  0  0  0  0  0  0  0  0  0  0
    4.9889    1.3231    0.0000 C   0  0  0  0  0  0  0  0  0  0  0  0
    6.2781    2.4799    0.0000 C   0  0  0  0  0  0  0  0  0  0  0  0
    2.0000   -0.9321    0.0000 C   0  0  0  0  0  0  0  0  0  0  0  0
    7.2566    2.6861    0.0000 C   0  0  0  0  0  0  0  0  0  0  0  0
    2.0000    0.0679    0.0000 C   0  0  0  0  0  0  0  0  0  0  0  0
    3.7320   -2.9321    0.0000 C   0  0  0  0  0  0  0  0  0  0  0  0
    2.0000   -2.9321    0.0000 C   0  0  0  0  0  0  0  0  0  0  0  0
    5.6103    3.2242    0.0000 C   0  0  0  0  0  0  0  0  0  0  0  0
    7.5673    3.6366    0.0000 C   0  0  0  0  0  0  0  0  0  0  0  0
    7.9244    1.9418    0.0000 C   0  0  0  0  0  0  0  0  0  0  0  0
    5.9209    4.1747    0.0000 C   0  0  0  0  0  0  0  0  0  0  0  0
    6.8994    4.3809    0.0000 C   0  0  0  0  0  0  0  0  0  0  0  0
    3.7320   -3.9321    0.0000 C   0  0  0  0  0  0  0  0  0  0  0  0
    2.0000   -3.9321    0.0000 C   0  0  0  0  0  0  0  0  0  0  0  0
    2.8660   -4.4321    0.0000 C   0  0  0  0  0  0  0  0  0  0  0  0
    5.8819   -0.4321    0.0000 H   0  0  0  0  0  0  0  0  0  0  0  0
    1.4631   -1.2421    0.0000 H   0  0  0  0  0  0  0  0  0  0  0  0
    6.3815    1.0679    0.0000 H   0  0  0  0  0  0  0  0  0  0  0  0
    1.4631    0.3779    0.0000 H   0  0  0  0  0  0  0  0  0  0  0  0
    4.2690   -2.6221    0.0000 H   0  0  0  0  0  0  0  0  0  0  0  0
    1.4631   -2.6221    0.0000 H   0  0  0  0  0  0  0  0  0  0  0  0
    5.0036    3.0963    0.0000 H   0  0  0  0  0  0  0  0  0  0  0  0
    7.4630    1.5277    0.0000 H   0  0  0  0  0  0  0  0  0  0  0  0
    8.3385    1.4803    0.0000 H   0  0  0  0  0  0  0  0  0  0  0  0
    8.3859    2.3558    0.0000 H   0  0  0  0  0  0  0  0  0  0  0  0
    5.5069    4.6361    0.0000 H   0  0  0  0  0  0  0  0  0  0  0  0
    7.0920    4.9702    0.0000 H   0  0  0  0  0  0  0  0  0  0  0  0
    4.2690   -4.2421    0.0000 H   0  0  0  0  0  0  0  0  0  0  0  0
    1.4631   -4.2421    0.0000 H   0  0  0  0  0  0  0  0  0  0  0  0
    2.8660   -5.0521    0.0000 H   0  0  0  0  0  0  0  0  0  0  0  0
    8.7384    4.4321    0.0000 H   0  0  0  0  0  0  0  0  0  0  0  0
  1 12  2  0  0  0  0
  2 20  1  0  0  0  0
  2 42  1  0  0  0  0
  3  4  1  0  0  0  0
  3  7  1  0  0  0  0
  3  8  1  0  0  0  0
  4 11  2  0  0  0  0
  5 12  1  0  0  0  0
  5 13  1  0  0  0  0
  5 29  1  0  0  0  0
  6  7  1  0  0  0  0
  6 16  2  0  0  0  0
  7  9  2  0  0  0  0
  8 10  1  0  0  0  0
  8 14  2  0  0  0  0
  9 11  1  0  0  0  0
  9 12  1  0  0  0  0
 10 17  2  0  0  0  0
 10 18  1  0  0  0  0
 11 27  1  0  0  0  0
 13 15  2  0  0  0  0
 13 19  1  0  0  0  0
 14 16  1  0  0  0  0
 14 28  1  0  0  0  0
 15 20  1  0  0  0  0
 15 21  1  0  0  0  0
 16 30  1  0  0  0  0
 17 24  1  0  0  0  0
 17 31  1  0  0  0  0
 18 25  2  0  0  0  0
 18 32  1  0  0  0  0
 19 22  2  0  0  0  0
 19 33  1  0  0  0  0
 20 23  2  0  0  0  0
 21 34  1  0  0  0  0
 21 35  1  0  0  0  0
 21 36  1  0  0  0  0
 22 23  1  0  0  0  0
 22 37  1  0  0  0  0
 23 38  1  0  0  0  0
 24 26  2  0  0  0  0
 24 39  1  0  0  0  0
 25 26  1  0  0  0  0
 25 40  1  0  0  0  0
 26 41  1  0  0  0  0
M  END
> <PUBCHEM_COMPOUND_CID>
49831001

> <PUBCHEM_COMPOUND_CANONICALIZED>
1

> <PUBCHEM_CACTVS_COMPLEXITY>
496

> <PUBCHEM_CACTVS_HBOND_ACCEPTOR>
4

> <PUBCHEM_CACTVS_HBOND_DONOR>
2

> <PUBCHEM_CACTVS_ROTATABLE_BOND>
3

> <PUBCHEM_CACTVS_SUBSKEYS>
AAADceB7sAAAAAAAAAAAAAAAAAAAAWAAAAA8YIAAAAAAAFgB9AAAHgAYCAAADAzBnwQ/9p7IEgCqAzd3dACShCs1oqAd2CE+bNiILurC2dOE9Ihu3BvI2OeQ0KMOAAAAAgAKAAAAAAAEABQAAAAAAAAAAA==

> <PUBCHEM_IUPAC_OPENEYE_NAME>
N-(3-hydroxy-2-methyl-phenyl)-7-phenyl-pyrazolo[1,5-a]pyrimidine-3-carboxamide

> <PUBCHEM_IUPAC_CAS_NAME>
N-(3-hydroxy-2-methylphenyl)-7-phenyl-3-pyrazolo[1,5-a]pyrimidinecarboxamide

> <PUBCHEM_IUPAC_NAME_MARKUP>
<I>N</I>-(3-hydroxy-2-methylphenyl)-7-phenylpyrazolo[1,5-a]pyrimidine-3-carboxamide

> <PUBCHEM_IUPAC_NAME>
N-(3-hydroxy-2-methylphenyl)-7-phenylpyrazolo[1,5-a]pyrimidine-3-carboxamide

> <PUBCHEM_IUPAC_SYSTEMATIC_NAME>
N-(2-methyl-3-oxidanyl-phenyl)-7-phenyl-pyrazolo[1,5-a]pyrimidine-3-carboxamide

> <PUBCHEM_IUPAC_TRADITIONAL_NAME>
N-(3-hydroxy-2-methyl-phenyl)-7-phenyl-pyrazolo[1,5-a]pyrimidine-3-carboxamide

> <PUBCHEM_IUPAC_INCHI>
InChI=1S/C20H16N4O2/c1-13-16(8-5-9-18(13)25)23-20(26)15-12-22-24-17(10-11-21-19(15)24)14-6-3-2-4-7-14/h2-12,25H,1H3,(H,23,26)

> <PUBCHEM_IUPAC_INCHIKEY>
YRMXRRQDAYFXOL-UHFFFAOYSA-N

> <PUBCHEM_XLOGP3_AA>
2.8

> <PUBCHEM_EXACT_MASS>
344.12732577

> <PUBCHEM_MOLECULAR_FORMULA>
C20H16N4O2

> <PUBCHEM_MOLECULAR_WEIGHT>
344.4

> <PUBCHEM_SMILES>
CC1=C(C=CC=C1O)NC(=O)C2=C3N=CC=C(N3N=C2)C4=CC=CC=C4

> <PUBCHEM_OPENEYE_CAN_SMILES>
CC1=C(C=CC=C1O)NC(=O)C2=C3N=CC=C(N3N=C2)C4=CC=CC=C4

> <PUBCHEM_OPENEYE_ISO_SMILES>
CC1=C(C=CC=C1O)NC(=O)C2=C3N=CC=C(N3N=C2)C4=CC=CC=C4

> <PUBCHEM_CACTVS_TPSA>
79.5

> <PUBCHEM_MONOISOTOPIC_WEIGHT>
344.12732577

> <PUBCHEM_TOTAL_CHARGE>
0

> <PUBCHEM_HEAVY_ATOM_COUNT>
26

> <PUBCHEM_ATOM_DEF_STEREO_COUNT>
0

> <PUBCHEM_ATOM_UDEF_STEREO_COUNT>
0

> <PUBCHEM_BOND_DEF_STEREO_COUNT>
0

> <PUBCHEM_BOND_UDEF_STEREO_COUNT>
0

> <PUBCHEM_ISOTOPIC_ATOM_COUNT>
0

> <PUBCHEM_COMPONENT_COUNT>
1

> <PUBCHEM_CACTVS_TAUTO_COUNT>
-1

> <PUBCHEM_COORDINATE_TYPE>
1
5
255

> <PUBCHEM_BONDANNOTATIONS>
10  17  8
10  18  8
13  15  8
13  19  8
14  16  8
15  20  8
17  24  8
18  25  8
19  22  8
20  23  8
22  23  8
24  26  8
25  26  8
3  4  8
3  7  8
3  8  8
4  11  8
6  16  8
6  7  8
7  9  8
8  14  8
9  11  8

$$$$
