49830970
  -OEChem-03202502452D

 33 34  0     0  0  0  0  0  0999 V2000
    4.5981   -1.4400    0.0000 O   0  0  0  0  0  0  0  0  0  0  0  0
    4.5981    0.5600    0.0000 N   0  0  0  0  0  0  0  0  0  0  0  0
    5.5443    0.2553    0.0000 N   0  0  0  0  0  0  0  0  0  0  0  0
    3.7320    2.0600    0.0000 N   0  0  0  0  0  0  0  0  0  0  0  0
    2.8660   -1.4400    0.0000 N   0  0  0  0  0  0  0  0  0  0  0  0
    7.1279    1.0600    0.0000 C   0  0  0  0  0  0  0  0  0  0  0  0
    6.1279    1.0600    0.0000 C   0  0  0  0  0  0  0  0  0  0  0  0
    8.1279    1.0600    0.0000 C   0  0  0  0  0  0  0  0  0  0  0  0
    7.1279    2.0600    0.0000 C   0  0  0  0  0  0  0  0  0  0  0  0
    7.1279    0.0600    0.0000 C   0  0  0  0  0  0  0  0  0  0  0  0
    5.5443    1.8647    0.0000 C   0  0  0  0  0  0  0  0  0  0  0  0
    4.5981    1.5600    0.0000 C   0  0  0  0  0  0  0  0  0  0  0  0
    3.7320    0.0600    0.0000 C   0  0  0  0  0  0  0  0  0  0  0  0
    2.8660    1.5600    0.0000 C   0  0  0  0  0  0  0  0  0  0  0  0
    2.8660    0.5600    0.0000 C   0  0  0  0  0  0  0  0  0  0  0  0
    3.7320   -0.9400    0.0000 C   0  0  0  0  0  0  0  0  0  0  0  0
    2.0000    2.0600    0.0000 C   0  0  0  0  0  0  0  0  0  0  0  0
    8.1279    0.4400    0.0000 H   0  0  0  0  0  0  0  0  0  0  0  0
    8.7479    1.0600    0.0000 H   0  0  0  0  0  0  0  0  0  0  0  0
    8.1279    1.6800    0.0000 H   0  0  0  0  0  0  0  0  0  0  0  0
    7.7479    2.0600    0.0000 H   0  0  0  0  0  0  0  0  0  0  0  0
    7.1279    2.6800    0.0000 H   0  0  0  0  0  0  0  0  0  0  0  0
    6.5079    2.0600    0.0000 H   0  0  0  0  0  0  0  0  0  0  0  0
    6.5079    0.0600    0.0000 H   0  0  0  0  0  0  0  0  0  0  0  0
    7.1279   -0.5600    0.0000 H   0  0  0  0  0  0  0  0  0  0  0  0
    7.7479    0.0600    0.0000 H   0  0  0  0  0  0  0  0  0  0  0  0
    5.7369    2.4540    0.0000 H   0  0  0  0  0  0  0  0  0  0  0  0
    2.3291    0.2500    0.0000 H   0  0  0  0  0  0  0  0  0  0  0  0
    2.3100    2.5969    0.0000 H   0  0  0  0  0  0  0  0  0  0  0  0
    1.4631    2.3700    0.0000 H   0  0  0  0  0  0  0  0  0  0  0  0
    1.6900    1.5231    0.0000 H   0  0  0  0  0  0  0  0  0  0  0  0
    2.8660   -2.0600    0.0000 H   0  0  0  0  0  0  0  0  0  0  0  0
    2.3291   -1.1300    0.0000 H   0  0  0  0  0  0  0  0  0  0  0  0
  1 16  2  0  0  0  0
  2  3  1  0  0  0  0
  2 12  1  0  0  0  0
  2 13  1  0  0  0  0
  3  7  2  0  0  0  0
  4 12  1  0  0  0  0
  4 14  2  0  0  0  0
  5 16  1  0  0  0  0
  5 32  1  0  0  0  0
  5 33  1  0  0  0  0
  6  7  1  0  0  0  0
  6  8  1  0  0  0  0
  6  9  1  0  0  0  0
  6 10  1  0  0  0  0
  7 11  1  0  0  0  0
  8 18  1  0  0  0  0
  8 19  1  0  0  0  0
  8 20  1  0  0  0  0
  9 21  1  0  0  0  0
  9 22  1  0  0  0  0
  9 23  1  0  0  0  0
 10 24  1  0  0  0  0
 10 25  1  0  0  0  0
 10 26  1  0  0  0  0
 11 12  2  0  0  0  0
 11 27  1  0  0  0  0
 13 15  2  0  0  0  0
 13 16  1  0  0  0  0
 14 15  1  0  0  0  0
 14 17  1  0  0  0  0
 15 28  1  0  0  0  0
 17 29  1  0  0  0  0
 17 30  1  0  0  0  0
 17 31  1  0  0  0  0
M  END
> <PUBCHEM_COMPOUND_CID>
49830970

> <PUBCHEM_COMPOUND_CANONICALIZED>
1

> <PUBCHEM_CACTVS_COMPLEXITY>
312

> <PUBCHEM_CACTVS_HBOND_ACCEPTOR>
3

> <PUBCHEM_CACTVS_HBOND_DONOR>
1

> <PUBCHEM_CACTVS_ROTATABLE_BOND>
2

> <PUBCHEM_CACTVS_SUBSKEYS>
AAADceBzoAAAAAAAAAAAAAAAAAAAAWAAAAAsAAAAAAAAAFgB4AAAHgAYAAAADgiBlwAzsJ5IEACqASdydACQhCsnAqAVGCGwZFiAaFJA3fGUhQhoiALISaIcAAANAAAAAAAAAAAAAAAAAAAAAAAAAAAAAA==

> <PUBCHEM_IUPAC_OPENEYE_NAME>
2-tert-butyl-5-methyl-pyrazolo[1,5-a]pyrimidine-7-carboxamide

> <PUBCHEM_IUPAC_CAS_NAME>
2-tert-butyl-5-methyl-7-pyrazolo[1,5-a]pyrimidinecarboxamide

> <PUBCHEM_IUPAC_NAME_MARKUP>
2-<I>tert</I>-butyl-5-methylpyrazolo[1,5-a]pyrimidine-7-carboxamide

> <PUBCHEM_IUPAC_NAME>
2-tert-butyl-5-methylpyrazolo[1,5-a]pyrimidine-7-carboxamide

> <PUBCHEM_IUPAC_SYSTEMATIC_NAME>
2-tert-butyl-5-methyl-pyrazolo[1,5-a]pyrimidine-7-carboxamide

> <PUBCHEM_IUPAC_TRADITIONAL_NAME>
2-tert-butyl-5-methyl-pyrazolo[1,5-a]pyrimidine-7-carboxamide

> <PUBCHEM_IUPAC_INCHI>
InChI=1S/C12H16N4O/c1-7-5-8(11(13)17)16-10(14-7)6-9(15-16)12(2,3)4/h5-6H,1-4H3,(H2,13,17)

> <PUBCHEM_IUPAC_INCHIKEY>
BMKHCMLGQGVJTF-UHFFFAOYSA-N

> <PUBCHEM_XLOGP3_AA>
1.6

> <PUBCHEM_EXACT_MASS>
232.13241115

> <PUBCHEM_MOLECULAR_FORMULA>
C12H16N4O

> <PUBCHEM_MOLECULAR_WEIGHT>
232.28

> <PUBCHEM_SMILES>
CC1=NC2=CC(=NN2C(=C1)C(=O)N)C(C)(C)C

> <PUBCHEM_OPENEYE_CAN_SMILES>
CC1=NC2=CC(=NN2C(=C1)C(=O)N)C(C)(C)C

> <PUBCHEM_OPENEYE_ISO_SMILES>
CC1=NC2=CC(=NN2C(=C1)C(=O)N)C(C)(C)C

> <PUBCHEM_CACTVS_TPSA>
73.3

> <PUBCHEM_MONOISOTOPIC_WEIGHT>
232.13241115

> <PUBCHEM_TOTAL_CHARGE>
0

> <PUBCHEM_HEAVY_ATOM_COUNT>
17

> <PUBCHEM_ATOM_DEF_STEREO_COUNT>
0

> <PUBCHEM_ATOM_UDEF_STEREO_COUNT>
0

> <PUBCHEM_BOND_DEF_STEREO_COUNT>
0

> <PUBCHEM_BOND_UDEF_STEREO_COUNT>
0

> <PUBCHEM_ISOTOPIC_ATOM_COUNT>
0

> <PUBCHEM_COMPONENT_COUNT>
1

> <PUBCHEM_CACTVS_TAUTO_COUNT>
-1

> <PUBCHEM_COORDINATE_TYPE>
1
5
255

> <PUBCHEM_BONDANNOTATIONS>
11  12  8
13  15  8
14  15  8
2  12  8
2  13  8
2  3  8
3  7  8
4  12  8
4  14  8
7  11  8

$$$$
