5288018
  -OEChem-03202505312D

 54 58  0     0  0  0  0  0  0999 V2000
    9.2188   -3.5440    0.0000 S   0  0  0  0  0  0  0  0  0  0  0  0
    6.9352   -0.9158    0.0000 O   0  0  0  0  0  0  0  0  0  0  0  0
    3.3415    0.5616    0.0000 O   0  0  0  0  0  0  0  0  0  0  0  0
    2.6605    3.9581    0.0000 N   0  0  0  0  0  0  0  0  0  0  0  0
    3.9815    2.4565    0.0000 N   0  0  0  0  0  0  0  0  0  0  0  0
    4.6420    1.7056    0.0000 N   0  0  0  0  0  0  0  0  0  0  0  0
    4.9825    0.0074    0.0000 N   0  0  0  0  0  0  0  0  0  0  0  0
    7.1512   -4.2074    0.0000 N   0  0  0  0  0  0  0  0  0  0  0  0
    6.1571   -4.2082    0.0000 N   0  0  0  0  0  0  0  0  0  0  0  0
    9.7214   -2.0061    0.0000 N   0  0  0  0  0  0  0  0  0  0  0  0
    3.6410    4.1547    0.0000 C   0  0  0  0  0  0  0  0  0  0  0  0
    2.3405    3.0107    0.0000 C   0  0  0  0  0  0  0  0  0  0  0  0
    4.3015    3.4039    0.0000 C   0  0  0  0  0  0  0  0  0  0  0  0
    3.0010    2.2599    0.0000 C   0  0  0  0  0  0  0  0  0  0  0  0
    5.3474   -1.7248    0.0000 C   0  0  0  0  0  0  0  0  0  0  0  0
    6.6565   -2.6758    0.0000 C   0  0  0  0  0  0  0  0  0  0  0  0
    5.0384   -2.6758    0.0000 C   0  0  0  0  0  0  0  0  0  0  0  0
    2.0000    4.7090    0.0000 C   0  0  0  0  0  0  0  0  0  0  0  0
    5.8474   -3.2636    0.0000 C   0  0  0  0  0  0  0  0  0  0  0  0
    6.3474   -1.7248    0.0000 C   0  0  0  0  0  0  0  0  0  0  0  0
    4.6625   -0.9400    0.0000 C   0  0  0  0  0  0  0  0  0  0  0  0
    7.4592   -3.2622    0.0000 C   0  0  0  0  0  0  0  0  0  0  0  0
    4.3220    0.7582    0.0000 C   0  0  0  0  0  0  0  0  0  0  0  0
    4.0230   -2.9081    0.0000 C   0  0  0  0  0  0  0  0  0  0  0  0
    3.6420   -1.1487    0.0000 C   0  0  0  0  0  0  0  0  0  0  0  0
    8.4108   -2.9548    0.0000 C   0  0  0  0  0  0  0  0  0  0  0  0
    3.3201   -2.1394    0.0000 C   0  0  0  0  0  0  0  0  0  0  0  0
    8.7214   -2.0043    0.0000 C   0  0  0  0  0  0  0  0  0  0  0  0
   10.0288   -2.9576    0.0000 C   0  0  0  0  0  0  0  0  0  0  0  0
    8.1350   -1.1943    0.0000 C   0  0  0  0  0  0  0  0  0  0  0  0
   10.9793   -3.2683    0.0000 C   0  0  0  0  0  0  0  0  0  0  0  0
    4.1705    4.4772    0.0000 H   0  0  0  0  0  0  0  0  0  0  0  0
    3.4154    4.7322    0.0000 H   0  0  0  0  0  0  0  0  0  0  0  0
    1.7965    3.3081    0.0000 H   0  0  0  0  0  0  0  0  0  0  0  0
    1.9532    2.5266    0.0000 H   0  0  0  0  0  0  0  0  0  0  0  0
    4.8455    3.1065    0.0000 H   0  0  0  0  0  0  0  0  0  0  0  0
    4.6888    3.8880    0.0000 H   0  0  0  0  0  0  0  0  0  0  0  0
    2.4714    1.9374    0.0000 H   0  0  0  0  0  0  0  0  0  0  0  0
    3.2266    1.6824    0.0000 H   0  0  0  0  0  0  0  0  0  0  0  0
    2.4655    5.1185    0.0000 H   0  0  0  0  0  0  0  0  0  0  0  0
    1.5905    5.1745    0.0000 H   0  0  0  0  0  0  0  0  0  0  0  0
    1.5345    4.2995    0.0000 H   0  0  0  0  0  0  0  0  0  0  0  0
    5.2499    1.8275    0.0000 H   0  0  0  0  0  0  0  0  0  0  0  0
    5.5904    0.1293    0.0000 H   0  0  0  0  0  0  0  0  0  0  0  0
    3.8383   -3.4999    0.0000 H   0  0  0  0  0  0  0  0  0  0  0  0
    7.5156   -4.7090    0.0000 H   0  0  0  0  0  0  0  0  0  0  0  0
    3.2289   -0.6864    0.0000 H   0  0  0  0  0  0  0  0  0  0  0  0
    2.7141   -2.2706    0.0000 H   0  0  0  0  0  0  0  0  0  0  0  0
    8.6373   -0.8307    0.0000 H   0  0  0  0  0  0  0  0  0  0  0  0
    7.7715   -0.6921    0.0000 H   0  0  0  0  0  0  0  0  0  0  0  0
    7.6328   -1.5578    0.0000 H   0  0  0  0  0  0  0  0  0  0  0  0
   10.7867   -3.8576    0.0000 H   0  0  0  0  0  0  0  0  0  0  0  0
   11.5686   -3.4609    0.0000 H   0  0  0  0  0  0  0  0  0  0  0  0
   11.1719   -2.6790    0.0000 H   0  0  0  0  0  0  0  0  0  0  0  0
  1 26  1  0  0  0  0
  1 29  1  0  0  0  0
  2 20  2  0  0  0  0
  3 23  2  0  0  0  0
  4 11  1  0  0  0  0
  4 12  1  0  0  0  0
  4 18  1  0  0  0  0
  5  6  1  0  0  0  0
  5 13  1  0  0  0  0
  5 14  1  0  0  0  0
  6 23  1  0  0  0  0
  6 43  1  0  0  0  0
  7 21  1  0  0  0  0
  7 23  1  0  0  0  0
  7 44  1  0  0  0  0
  8  9  1  0  0  0  0
  8 22  1  0  0  0  0
  8 46  1  0  0  0  0
  9 19  2  0  0  0  0
 10 28  1  0  0  0  0
 10 29  2  0  0  0  0
 11 13  1  0  0  0  0
 11 32  1  0  0  0  0
 11 33  1  0  0  0  0
 12 14  1  0  0  0  0
 12 34  1  0  0  0  0
 12 35  1  0  0  0  0
 13 36  1  0  0  0  0
 13 37  1  0  0  0  0
 14 38  1  0  0  0  0
 14 39  1  0  0  0  0
 15 17  2  0  0  0  0
 15 20  1  0  0  0  0
 15 21  1  0  0  0  0
 16 19  1  0  0  0  0
 16 20  1  0  0  0  0
 16 22  2  0  0  0  0
 17 19  1  0  0  0  0
 17 24  1  0  0  0  0
 18 40  1  0  0  0  0
 18 41  1  0  0  0  0
 18 42  1  0  0  0  0
 21 25  2  0  0  0  0
 22 26  1  0  0  0  0
 24 27  2  0  0  0  0
 24 45  1  0  0  0  0
 25 27  1  0  0  0  0
 25 47  1  0  0  0  0
 26 28  2  0  0  0  0
 27 48  1  0  0  0  0
 28 30  1  0  0  0  0
 29 31  1  0  0  0  0
 30 49  1  0  0  0  0
 30 50  1  0  0  0  0
 30 51  1  0  0  0  0
 31 52  1  0  0  0  0
 31 53  1  0  0  0  0
 31 54  1  0  0  0  0
M  END
> <PUBCHEM_COMPOUND_CID>
5288018

> <PUBCHEM_COMPOUND_CANONICALIZED>
1

> <PUBCHEM_CACTVS_COMPLEXITY>
703

> <PUBCHEM_CACTVS_HBOND_ACCEPTOR>
7

> <PUBCHEM_CACTVS_HBOND_DONOR>
3

> <PUBCHEM_CACTVS_ROTATABLE_BOND>
3

> <PUBCHEM_CACTVS_SUBSKEYS>
AAADceB7sABAAAAAAAAAAAAAAAAAAeLEAAA8QAAAAAAWAGAB8AAAHgQYAAAADAzB3gQzwZPrEAiuA6RyVACS9KBlCjgeuTU4ZNiIYLrg1dGUpYhwnALoyWccicCegAAAQAASAAAAAACAACQAASAACQAAAA==

> <PUBCHEM_IUPAC_OPENEYE_NAME>
1-[3-(2,4-dimethylthiazol-5-yl)-4-oxo-2H-indeno[1,2-c]pyrazol-5-yl]-3-(4-methylpiperazin-1-yl)urea

> <PUBCHEM_IUPAC_CAS_NAME>
1-[3-(2,4-dimethyl-5-thiazolyl)-4-oxo-2H-indeno[1,2-c]pyrazol-5-yl]-3-(4-methyl-1-piperazinyl)urea

> <PUBCHEM_IUPAC_NAME_MARKUP>
1-[3-(2,4-dimethyl-1,3-thiazol-5-yl)-4-oxo-2<I>H</I>-indeno[1,2-c]pyrazol-5-yl]-3-(4-methylpiperazin-1-yl)urea

> <PUBCHEM_IUPAC_NAME>
1-[3-(2,4-dimethyl-1,3-thiazol-5-yl)-4-oxo-2H-indeno[1,2-c]pyrazol-5-yl]-3-(4-methylpiperazin-1-yl)urea

> <PUBCHEM_IUPAC_SYSTEMATIC_NAME>
1-[3-(2,4-dimethyl-1,3-thiazol-5-yl)-4-oxidanylidene-2H-indeno[1,2-c]pyrazol-5-yl]-3-(4-methylpiperazin-1-yl)urea

> <PUBCHEM_IUPAC_TRADITIONAL_NAME>
1-[3-(2,4-dimethylthiazol-5-yl)-4-keto-2H-indeno[1,2-c]pyrazol-5-yl]-3-(4-methylpiperazino)urea

> <PUBCHEM_IUPAC_INCHI>
InChI=1S/C21H23N7O2S/c1-11-20(31-12(2)22-11)18-16-17(24-25-18)13-5-4-6-14(15(13)19(16)29)23-21(30)26-28-9-7-27(3)8-10-28/h4-6H,7-10H2,1-3H3,(H,24,25)(H2,23,26,30)

> <PUBCHEM_IUPAC_INCHIKEY>
KRKQVGZXTNLQSV-UHFFFAOYSA-N

> <PUBCHEM_XLOGP3_AA>
2.5

> <PUBCHEM_EXACT_MASS>
437.16339418

> <PUBCHEM_MOLECULAR_FORMULA>
C21H23N7O2S

> <PUBCHEM_MOLECULAR_WEIGHT>
437.5

> <PUBCHEM_SMILES>
CC1=C(SC(=N1)C)C2=C3C(=NN2)C4=C(C3=O)C(=CC=C4)NC(=O)NN5CCN(CC5)C

> <PUBCHEM_OPENEYE_CAN_SMILES>
CC1=C(SC(=N1)C)C2=C3C(=NN2)C4=C(C3=O)C(=CC=C4)NC(=O)NN5CCN(CC5)C

> <PUBCHEM_OPENEYE_ISO_SMILES>
CC1=C(SC(=N1)C)C2=C3C(=NN2)C4=C(C3=O)C(=CC=C4)NC(=O)NN5CCN(CC5)C

> <PUBCHEM_CACTVS_TPSA>
134

> <PUBCHEM_MONOISOTOPIC_WEIGHT>
437.16339418

> <PUBCHEM_TOTAL_CHARGE>
0

> <PUBCHEM_HEAVY_ATOM_COUNT>
31

> <PUBCHEM_ATOM_DEF_STEREO_COUNT>
0

> <PUBCHEM_ATOM_UDEF_STEREO_COUNT>
0

> <PUBCHEM_BOND_DEF_STEREO_COUNT>
0

> <PUBCHEM_BOND_UDEF_STEREO_COUNT>
0

> <PUBCHEM_ISOTOPIC_ATOM_COUNT>
0

> <PUBCHEM_COMPONENT_COUNT>
1

> <PUBCHEM_CACTVS_TAUTO_COUNT>
-1

> <PUBCHEM_COORDINATE_TYPE>
1
5
255

> <PUBCHEM_BONDANNOTATIONS>
1  26  8
1  29  8
10  28  8
10  29  8
15  17  8
15  21  8
16  19  8
16  22  8
17  24  8
21  25  8
24  27  8
25  27  8
26  28  8
8  22  8
8  9  8
9  19  8

$$$$
