6539985
  -OEChem-03202500452D

 44 47  0     0  0  0  0  0  0999 V2000
    4.6783   -3.8680    0.0000 S   0  0  0  0  0  0  0  0  0  0  0  0
    7.5673    1.0055    0.0000 O   0  0  0  0  0  0  0  0  0  0  0  0
    5.9209    1.5436    0.0000 N   0  0  0  0  0  0  0  0  0  0  0  0
    2.8660   -4.0633    0.0000 N   0  0  0  0  0  0  0  0  0  0  0  0
    7.2101    2.7003    0.0000 N   0  0  0  0  0  0  0  0  0  0  0  0
    2.0000   -2.5633    0.0000 N   0  0  0  0  0  0  0  0  0  0  0  0
    2.8660   -1.0633    0.0000 N   0  0  0  0  0  0  0  0  0  0  0  0
    4.6783   -2.2585    0.0000 C   0  0  0  0  0  0  0  0  0  0  0  0
    4.9889   -1.3080    0.0000 C   0  0  0  0  0  0  0  0  0  0  0  0
    3.7320   -2.5633    0.0000 C   0  0  0  0  0  0  0  0  0  0  0  0
    3.7320   -3.5633    0.0000 C   0  0  0  0  0  0  0  0  0  0  0  0
    4.3211   -0.5637    0.0000 C   0  0  0  0  0  0  0  0  0  0  0  0
    5.9674   -1.1018    0.0000 C   0  0  0  0  0  0  0  0  0  0  0  0
    5.2619   -3.0633    0.0000 C   0  0  0  0  0  0  0  0  0  0  0  0
    5.6103    0.5930    0.0000 C   0  0  0  0  0  0  0  0  0  0  0  0
    2.8660   -2.0633    0.0000 C   0  0  0  0  0  0  0  0  0  0  0  0
    4.6318    0.3868    0.0000 C   0  0  0  0  0  0  0  0  0  0  0  0
    6.2781   -0.1513    0.0000 C   0  0  0  0  0  0  0  0  0  0  0  0
    8.1886    2.9065    0.0000 C   0  0  0  0  0  0  0  0  0  0  0  0
    9.8349    2.3684    0.0000 C   0  0  0  0  0  0  0  0  0  0  0  0
    6.8994    1.7498    0.0000 C   0  0  0  0  0  0  0  0  0  0  0  0
    8.8564    2.1622    0.0000 C   0  0  0  0  0  0  0  0  0  0  0  0
    8.4993    3.8570    0.0000 C   0  0  0  0  0  0  0  0  0  0  0  0
    2.0000   -3.5633    0.0000 C   0  0  0  0  0  0  0  0  0  0  0  0
   10.1456    3.3190    0.0000 C   0  0  0  0  0  0  0  0  0  0  0  0
    9.4778    4.0633    0.0000 C   0  0  0  0  0  0  0  0  0  0  0  0
   10.5028    1.6241    0.0000 C   0  0  0  0  0  0  0  0  0  0  0  0
    3.7144   -0.6916    0.0000 H   0  0  0  0  0  0  0  0  0  0  0  0
    6.3815   -1.5632    0.0000 H   0  0  0  0  0  0  0  0  0  0  0  0
    5.8819   -3.0633    0.0000 H   0  0  0  0  0  0  0  0  0  0  0  0
    4.2177    0.8483    0.0000 H   0  0  0  0  0  0  0  0  0  0  0  0
    6.8848   -0.0234    0.0000 H   0  0  0  0  0  0  0  0  0  0  0  0
    5.5069    2.0050    0.0000 H   0  0  0  0  0  0  0  0  0  0  0  0
    8.6638    1.5729    0.0000 H   0  0  0  0  0  0  0  0  0  0  0  0
    6.7960    3.1618    0.0000 H   0  0  0  0  0  0  0  0  0  0  0  0
    8.0852    4.3185    0.0000 H   0  0  0  0  0  0  0  0  0  0  0  0
    1.4631   -3.8733    0.0000 H   0  0  0  0  0  0  0  0  0  0  0  0
   10.7523    3.4468    0.0000 H   0  0  0  0  0  0  0  0  0  0  0  0
    2.3291   -0.7533    0.0000 H   0  0  0  0  0  0  0  0  0  0  0  0
    3.4030   -0.7533    0.0000 H   0  0  0  0  0  0  0  0  0  0  0  0
    9.6704    4.6526    0.0000 H   0  0  0  0  0  0  0  0  0  0  0  0
   10.0413    1.2101    0.0000 H   0  0  0  0  0  0  0  0  0  0  0  0
   10.9169    1.1627    0.0000 H   0  0  0  0  0  0  0  0  0  0  0  0
   10.9643    2.0382    0.0000 H   0  0  0  0  0  0  0  0  0  0  0  0
  1 11  1  0  0  0  0
  1 14  1  0  0  0  0
  2 21  2  0  0  0  0
  3 15  1  0  0  0  0
  3 21  1  0  0  0  0
  3 33  1  0  0  0  0
  4 11  2  0  0  0  0
  4 24  1  0  0  0  0
  5 19  1  0  0  0  0
  5 21  1  0  0  0  0
  5 35  1  0  0  0  0
  6 16  1  0  0  0  0
  6 24  2  0  0  0  0
  7 16  1  0  0  0  0
  7 39  1  0  0  0  0
  7 40  1  0  0  0  0
  8  9  1  0  0  0  0
  8 10  1  0  0  0  0
  8 14  2  0  0  0  0
  9 12  2  0  0  0  0
  9 13  1  0  0  0  0
 10 11  1  0  0  0  0
 10 16  2  0  0  0  0
 12 17  1  0  0  0  0
 12 28  1  0  0  0  0
 13 18  2  0  0  0  0
 13 29  1  0  0  0  0
 14 30  1  0  0  0  0
 15 17  2  0  0  0  0
 15 18  1  0  0  0  0
 17 31  1  0  0  0  0
 18 32  1  0  0  0  0
 19 22  1  0  0  0  0
 19 23  2  0  0  0  0
 20 22  2  0  0  0  0
 20 25  1  0  0  0  0
 20 27  1  0  0  0  0
 22 34  1  0  0  0  0
 23 26  1  0  0  0  0
 23 36  1  0  0  0  0
 24 37  1  0  0  0  0
 25 26  2  0  0  0  0
 25 38  1  0  0  0  0
 26 41  1  0  0  0  0
 27 42  1  0  0  0  0
 27 43  1  0  0  0  0
 27 44  1  0  0  0  0
M  END
> <PUBCHEM_COMPOUND_CID>
6539985

> <PUBCHEM_COMPOUND_CANONICALIZED>
1

> <PUBCHEM_CACTVS_COMPLEXITY>
513

> <PUBCHEM_CACTVS_HBOND_ACCEPTOR>
5

> <PUBCHEM_CACTVS_HBOND_DONOR>
3

> <PUBCHEM_CACTVS_ROTATABLE_BOND>
3

> <PUBCHEM_CACTVS_SUBSKEYS>
AAADceB7oABAAAAAAAAAAAAAAAAAASAAAAA8YIAAAAAAAFgB/AAAHgQQAAAADAiFWgS38dbIEAisAiZjdACD0KlxCrgJ2DAoZJiIKCLg2dGEJAxolAJoyCcQgMAOiAAAQAAAAAAQAACAAAAAAAAAAAAAAA==

> <PUBCHEM_IUPAC_OPENEYE_NAME>
1-[4-(4-aminothieno[2,3-d]pyrimidin-5-yl)phenyl]-3-(m-tolyl)urea

> <PUBCHEM_IUPAC_CAS_NAME>
1-[4-(4-amino-5-thieno[2,3-d]pyrimidinyl)phenyl]-3-(3-methylphenyl)urea

> <PUBCHEM_IUPAC_NAME_MARKUP>
1-[4-(4-aminothieno[2,3-d]pyrimidin-5-yl)phenyl]-3-(3-methylphenyl)urea

> <PUBCHEM_IUPAC_NAME>
1-[4-(4-aminothieno[2,3-d]pyrimidin-5-yl)phenyl]-3-(3-methylphenyl)urea

> <PUBCHEM_IUPAC_SYSTEMATIC_NAME>
1-[4-(4-azanylthieno[2,3-d]pyrimidin-5-yl)phenyl]-3-(3-methylphenyl)urea

> <PUBCHEM_IUPAC_TRADITIONAL_NAME>
1-[4-(4-aminothieno[2,3-d]pyrimidin-5-yl)phenyl]-3-(m-tolyl)urea

> <PUBCHEM_IUPAC_INCHI>
InChI=1S/C20H17N5OS/c1-12-3-2-4-15(9-12)25-20(26)24-14-7-5-13(6-8-14)16-10-27-19-17(16)18(21)22-11-23-19/h2-11H,1H3,(H2,21,22,23)(H2,24,25,26)

> <PUBCHEM_IUPAC_INCHIKEY>
DZSUJUOJJJCWGG-UHFFFAOYSA-N

> <PUBCHEM_XLOGP3_AA>
3.8

> <PUBCHEM_EXACT_MASS>
375.11538136

> <PUBCHEM_MOLECULAR_FORMULA>
C20H17N5OS

> <PUBCHEM_MOLECULAR_WEIGHT>
375.4

> <PUBCHEM_SMILES>
CC1=CC(=CC=C1)NC(=O)NC2=CC=C(C=C2)C3=CSC4=NC=NC(=C34)N

> <PUBCHEM_OPENEYE_CAN_SMILES>
CC1=CC(=CC=C1)NC(=O)NC2=CC=C(C=C2)C3=CSC4=NC=NC(=C34)N

> <PUBCHEM_OPENEYE_ISO_SMILES>
CC1=CC(=CC=C1)NC(=O)NC2=CC=C(C=C2)C3=CSC4=NC=NC(=C34)N

> <PUBCHEM_CACTVS_TPSA>
121

> <PUBCHEM_MONOISOTOPIC_WEIGHT>
375.11538136

> <PUBCHEM_TOTAL_CHARGE>
0

> <PUBCHEM_HEAVY_ATOM_COUNT>
27

> <PUBCHEM_ATOM_DEF_STEREO_COUNT>
0

> <PUBCHEM_ATOM_UDEF_STEREO_COUNT>
0

> <PUBCHEM_BOND_DEF_STEREO_COUNT>
0

> <PUBCHEM_BOND_UDEF_STEREO_COUNT>
0

> <PUBCHEM_ISOTOPIC_ATOM_COUNT>
0

> <PUBCHEM_COMPONENT_COUNT>
1

> <PUBCHEM_CACTVS_TAUTO_COUNT>
-1

> <PUBCHEM_COORDINATE_TYPE>
1
5
255

> <PUBCHEM_BONDANNOTATIONS>
1  11  8
1  14  8
10  11  8
10  16  8
12  17  8
13  18  8
15  17  8
15  18  8
19  22  8
19  23  8
20  22  8
20  25  8
23  26  8
25  26  8
4  11  8
4  24  8
6  16  8
6  24  8
8  10  8
8  14  8
9  12  8
9  13  8

$$$$
