24905182
  -OEChem-03192523512D

 39 42  0     0  0  0  0  0  0999 V2000
    7.2566    2.4130    0.0000 F   0  0  0  0  0  0  0  0  0  0  0  0
    3.9639    3.4892    0.0000 O   0  0  0  0  0  0  0  0  0  0  0  0
    4.6783   -1.5099    0.0000 N   0  0  0  0  0  0  0  0  0  0  0  0
    5.2619   -0.7052    0.0000 N   0  0  0  0  0  0  0  0  0  0  0  0
    2.8660   -1.7052    0.0000 N   0  0  0  0  0  0  0  0  0  0  0  0
    2.0000   -0.2052    0.0000 N   0  0  0  0  0  0  0  0  0  0  0  0
    2.8660    1.2948    0.0000 N   0  0  0  0  0  0  0  0  0  0  0  0
    4.9889   -2.4605    0.0000 C   0  0  0  0  0  0  0  0  0  0  0  0
    4.4026   -3.2705    0.0000 C   0  0  0  0  0  0  0  0  0  0  0  0
    5.9405   -2.7678    0.0000 C   0  0  0  0  0  0  0  0  0  0  0  0
    4.9917   -4.0785    0.0000 C   0  0  0  0  0  0  0  0  0  0  0  0
    5.9422   -3.7678    0.0000 C   0  0  0  0  0  0  0  0  0  0  0  0
    3.7320   -1.2052    0.0000 C   0  0  0  0  0  0  0  0  0  0  0  0
    3.7320   -0.2052    0.0000 C   0  0  0  0  0  0  0  0  0  0  0  0
    4.6783    0.0995    0.0000 C   0  0  0  0  0  0  0  0  0  0  0  0
    4.9889    1.0500    0.0000 C   0  0  0  0  0  0  0  0  0  0  0  0
    2.8660    0.2948    0.0000 C   0  0  0  0  0  0  0  0  0  0  0  0
    2.0000   -1.2052    0.0000 C   0  0  0  0  0  0  0  0  0  0  0  0
    4.3211    1.7944    0.0000 C   0  0  0  0  0  0  0  0  0  0  0  0
    5.9674    1.2563    0.0000 C   0  0  0  0  0  0  0  0  0  0  0  0
    4.6318    2.7449    0.0000 C   0  0  0  0  0  0  0  0  0  0  0  0
    6.2781    2.2068    0.0000 C   0  0  0  0  0  0  0  0  0  0  0  0
    5.6103    2.9511    0.0000 C   0  0  0  0  0  0  0  0  0  0  0  0
    5.4266   -2.0213    0.0000 H   0  0  0  0  0  0  0  0  0  0  0  0
    3.9411   -2.8564    0.0000 H   0  0  0  0  0  0  0  0  0  0  0  0
    3.9425   -3.6862    0.0000 H   0  0  0  0  0  0  0  0  0  0  0  0
    6.5572   -2.8316    0.0000 H   0  0  0  0  0  0  0  0  0  0  0  0
    6.0684   -2.1612    0.0000 H   0  0  0  0  0  0  0  0  0  0  0  0
    4.4553   -4.3894    0.0000 H   0  0  0  0  0  0  0  0  0  0  0  0
    5.2449   -4.6444    0.0000 H   0  0  0  0  0  0  0  0  0  0  0  0
    6.0722   -4.3741    0.0000 H   0  0  0  0  0  0  0  0  0  0  0  0
    6.5587   -3.7020    0.0000 H   0  0  0  0  0  0  0  0  0  0  0  0
    1.4631   -1.5152    0.0000 H   0  0  0  0  0  0  0  0  0  0  0  0
    3.7144    1.6665    0.0000 H   0  0  0  0  0  0  0  0  0  0  0  0
    6.3815    0.7948    0.0000 H   0  0  0  0  0  0  0  0  0  0  0  0
    2.3291    1.6048    0.0000 H   0  0  0  0  0  0  0  0  0  0  0  0
    3.4030    1.6048    0.0000 H   0  0  0  0  0  0  0  0  0  0  0  0
    5.8029    3.5404    0.0000 H   0  0  0  0  0  0  0  0  0  0  0  0
    4.1565    4.0785    0.0000 H   0  0  0  0  0  0  0  0  0  0  0  0
  1 22  1  0  0  0  0
  2 21  1  0  0  0  0
  2 39  1  0  0  0  0
  3  4  1  0  0  0  0
  3  8  1  0  0  0  0
  3 13  1  0  0  0  0
  4 15  2  0  0  0  0
  5 13  2  0  0  0  0
  5 18  1  0  0  0  0
  6 17  1  0  0  0  0
  6 18  2  0  0  0  0
  7 17  1  0  0  0  0
  7 36  1  0  0  0  0
  7 37  1  0  0  0  0
  8  9  1  0  0  0  0
  8 10  1  0  0  0  0
  8 24  1  0  0  0  0
  9 11  1  0  0  0  0
  9 25  1  0  0  0  0
  9 26  1  0  0  0  0
 10 12  1  0  0  0  0
 10 27  1  0  0  0  0
 10 28  1  0  0  0  0
 11 12  1  0  0  0  0
 11 29  1  0  0  0  0
 11 30  1  0  0  0  0
 12 31  1  0  0  0  0
 12 32  1  0  0  0  0
 13 14  1  0  0  0  0
 14 15  1  0  0  0  0
 14 17  2  0  0  0  0
 15 16  1  0  0  0  0
 16 19  2  0  0  0  0
 16 20  1  0  0  0  0
 18 33  1  0  0  0  0
 19 21  1  0  0  0  0
 19 34  1  0  0  0  0
 20 22  2  0  0  0  0
 20 35  1  0  0  0  0
 21 23  2  0  0  0  0
 22 23  1  0  0  0  0
 23 38  1  0  0  0  0
M  END
> <PUBCHEM_COMPOUND_CID>
24905182

> <PUBCHEM_COMPOUND_CANONICALIZED>
1

> <PUBCHEM_CACTVS_COMPLEXITY>
421

> <PUBCHEM_CACTVS_HBOND_ACCEPTOR>
6

> <PUBCHEM_CACTVS_HBOND_DONOR>
2

> <PUBCHEM_CACTVS_ROTATABLE_BOND>
2

> <PUBCHEM_CACTVS_SUBSKEYS>
AAADceB7oQAAAAAAAAAAAAAAAAAAAeIAAAA8QAAAAAAAAFgB/AAAHwAYCAAADCzBnww1tt5IEgCiAyZjZACShCsxoKAV2CAuTJiILqLC2dOE9AhsyBPI2CewwPAOAAABAAAAAAAAAAIAAAAAAAAAAAAAAA==

> <PUBCHEM_IUPAC_OPENEYE_NAME>
3-(4-amino-1-cyclopentyl-pyrazolo[3,4-d]pyrimidin-3-yl)-5-fluoro-phenol

> <PUBCHEM_IUPAC_CAS_NAME>
3-(4-amino-1-cyclopentyl-3-pyrazolo[3,4-d]pyrimidinyl)-5-fluorophenol

> <PUBCHEM_IUPAC_NAME_MARKUP>
3-(4-amino-1-cyclopentylpyrazolo[3,4-d]pyrimidin-3-yl)-5-fluorophenol

> <PUBCHEM_IUPAC_NAME>
3-(4-amino-1-cyclopentylpyrazolo[3,4-d]pyrimidin-3-yl)-5-fluorophenol

> <PUBCHEM_IUPAC_SYSTEMATIC_NAME>
3-(4-azanyl-1-cyclopentyl-pyrazolo[3,4-d]pyrimidin-3-yl)-5-fluoranyl-phenol

> <PUBCHEM_IUPAC_TRADITIONAL_NAME>
3-(4-amino-1-cyclopentyl-pyrazolo[3,4-d]pyrimidin-3-yl)-5-fluoro-phenol

> <PUBCHEM_IUPAC_INCHI>
InChI=1S/C16H16FN5O/c17-10-5-9(6-12(23)7-10)14-13-15(18)19-8-20-16(13)22(21-14)11-3-1-2-4-11/h5-8,11,23H,1-4H2,(H2,18,19,20)

> <PUBCHEM_IUPAC_INCHIKEY>
IWGLXKVBQSBQMC-UHFFFAOYSA-N

> <PUBCHEM_XLOGP3_AA>
2.4

> <PUBCHEM_EXACT_MASS>
313.13388831

> <PUBCHEM_MOLECULAR_FORMULA>
C16H16FN5O

> <PUBCHEM_MOLECULAR_WEIGHT>
313.33

> <PUBCHEM_SMILES>
C1CCC(C1)N2C3=NC=NC(=C3C(=N2)C4=CC(=CC(=C4)F)O)N

> <PUBCHEM_OPENEYE_CAN_SMILES>
C1CCC(C1)N2C3=NC=NC(=C3C(=N2)C4=CC(=CC(=C4)F)O)N

> <PUBCHEM_OPENEYE_ISO_SMILES>
C1CCC(C1)N2C3=NC=NC(=C3C(=N2)C4=CC(=CC(=C4)F)O)N

> <PUBCHEM_CACTVS_TPSA>
89.9

> <PUBCHEM_MONOISOTOPIC_WEIGHT>
313.13388831

> <PUBCHEM_TOTAL_CHARGE>
0

> <PUBCHEM_HEAVY_ATOM_COUNT>
23

> <PUBCHEM_ATOM_DEF_STEREO_COUNT>
0

> <PUBCHEM_ATOM_UDEF_STEREO_COUNT>
0

> <PUBCHEM_BOND_DEF_STEREO_COUNT>
0

> <PUBCHEM_BOND_UDEF_STEREO_COUNT>
0

> <PUBCHEM_ISOTOPIC_ATOM_COUNT>
0

> <PUBCHEM_COMPONENT_COUNT>
1

> <PUBCHEM_CACTVS_TAUTO_COUNT>
-1

> <PUBCHEM_COORDINATE_TYPE>
1
5
255

> <PUBCHEM_BONDANNOTATIONS>
13  14  8
14  15  8
14  17  8
16  19  8
16  20  8
19  21  8
20  22  8
21  23  8
22  23  8
3  13  8
3  4  8
4  15  8
5  13  8
5  18  8
6  17  8
6  18  8

$$$$
