49830547
  -OEChem-03202502042D

 38 41  0     0  0  0  0  0  0999 V2000
    5.0000    1.5094    0.0000 Cl  0  0  0  0  0  0  0  0  0  0  0  0
    2.0000    3.2415    0.0000 Cl  0  0  0  0  0  0  0  0  0  0  0  0
    4.3752   -2.5546    0.0000 O   0  0  0  0  0  0  0  0  0  0  0  0
    6.7071   -3.1794    0.0000 O   0  0  0  0  0  0  0  0  0  0  0  0
    5.0000   -0.2226    0.0000 N   0  0  0  0  0  0  0  0  0  0  0  0
    7.3320   -0.8474    0.0000 N   0  0  0  0  0  0  0  0  0  0  0  0
   10.8762   -2.6522    0.0000 N   0  0  0  0  0  0  0  0  0  0  0  0
   11.4599   -1.8474    0.0000 N   0  0  0  0  0  0  0  0  0  0  0  0
    5.5000   -1.0886    0.0000 C   0  0  0  0  0  0  0  0  0  0  0  0
    6.4659   -1.3474    0.0000 C   0  0  0  0  0  0  0  0  0  0  0  0
    5.2412   -2.0546    0.0000 C   0  0  0  0  0  0  0  0  0  0  0  0
    6.2071   -2.3134    0.0000 C   0  0  0  0  0  0  0  0  0  0  0  0
    4.0000   -0.2226    0.0000 C   0  0  0  0  0  0  0  0  0  0  0  0
    8.1980   -1.3474    0.0000 C   0  0  0  0  0  0  0  0  0  0  0  0
    9.9300   -1.3474    0.0000 C   0  0  0  0  0  0  0  0  0  0  0  0
    3.5000    0.6434    0.0000 C   0  0  0  0  0  0  0  0  0  0  0  0
    9.0640   -0.8474    0.0000 C   0  0  0  0  0  0  0  0  0  0  0  0
    9.9300   -2.3474    0.0000 C   0  0  0  0  0  0  0  0  0  0  0  0
    8.1980   -2.3474    0.0000 C   0  0  0  0  0  0  0  0  0  0  0  0
    9.0640   -2.8474    0.0000 C   0  0  0  0  0  0  0  0  0  0  0  0
    4.0000    1.5094    0.0000 C   0  0  0  0  0  0  0  0  0  0  0  0
    2.5000    0.6434    0.0000 C   0  0  0  0  0  0  0  0  0  0  0  0
   10.8762   -1.0427    0.0000 C   0  0  0  0  0  0  0  0  0  0  0  0
    3.5000    2.3755    0.0000 C   0  0  0  0  0  0  0  0  0  0  0  0
    2.0000    1.5094    0.0000 C   0  0  0  0  0  0  0  0  0  0  0  0
    2.5000    2.3755    0.0000 C   0  0  0  0  0  0  0  0  0  0  0  0
    5.3100    0.3143    0.0000 H   0  0  0  0  0  0  0  0  0  0  0  0
    3.4174   -0.4347    0.0000 H   0  0  0  0  0  0  0  0  0  0  0  0
    4.1077   -0.8332    0.0000 H   0  0  0  0  0  0  0  0  0  0  0  0
    7.3320   -0.2274    0.0000 H   0  0  0  0  0  0  0  0  0  0  0  0
    9.0640   -0.2274    0.0000 H   0  0  0  0  0  0  0  0  0  0  0  0
    7.6610   -2.6574    0.0000 H   0  0  0  0  0  0  0  0  0  0  0  0
    9.0640   -3.4674    0.0000 H   0  0  0  0  0  0  0  0  0  0  0  0
    2.1900    0.1065    0.0000 H   0  0  0  0  0  0  0  0  0  0  0  0
   11.0689   -0.4534    0.0000 H   0  0  0  0  0  0  0  0  0  0  0  0
   11.0689   -3.2415    0.0000 H   0  0  0  0  0  0  0  0  0  0  0  0
    3.8100    2.9124    0.0000 H   0  0  0  0  0  0  0  0  0  0  0  0
    1.3800    1.5094    0.0000 H   0  0  0  0  0  0  0  0  0  0  0  0
  1 21  1  0  0  0  0
  2 26  1  0  0  0  0
  3 11  2  0  0  0  0
  4 12  2  0  0  0  0
  5  9  1  0  0  0  0
  5 13  1  0  0  0  0
  5 27  1  0  0  0  0
  6 10  1  0  0  0  0
  6 14  1  0  0  0  0
  6 30  1  0  0  0  0
  7  8  1  0  0  0  0
  7 18  1  0  0  0  0
  7 36  1  0  0  0  0
  8 23  2  0  0  0  0
  9 10  2  0  0  0  0
  9 11  1  0  0  0  0
 10 12  1  0  0  0  0
 11 12  1  0  0  0  0
 13 16  1  0  0  0  0
 13 28  1  0  0  0  0
 13 29  1  0  0  0  0
 14 17  2  0  0  0  0
 14 19  1  0  0  0  0
 15 17  1  0  0  0  0
 15 18  2  0  0  0  0
 15 23  1  0  0  0  0
 16 21  2  0  0  0  0
 16 22  1  0  0  0  0
 17 31  1  0  0  0  0
 18 20  1  0  0  0  0
 19 20  2  0  0  0  0
 19 32  1  0  0  0  0
 20 33  1  0  0  0  0
 21 24  1  0  0  0  0
 22 25  2  0  0  0  0
 22 34  1  0  0  0  0
 23 35  1  0  0  0  0
 24 26  2  0  0  0  0
 24 37  1  0  0  0  0
 25 26  1  0  0  0  0
 25 38  1  0  0  0  0
M  END
> <PUBCHEM_COMPOUND_CID>
49830547

> <PUBCHEM_COMPOUND_CANONICALIZED>
1

> <PUBCHEM_CACTVS_COMPLEXITY>
626

> <PUBCHEM_CACTVS_HBOND_ACCEPTOR>
5

> <PUBCHEM_CACTVS_HBOND_DONOR>
3

> <PUBCHEM_CACTVS_ROTATABLE_BOND>
5

> <PUBCHEM_CACTVS_SUBSKEYS>
AAADccB7sAAGAAAAAAAAAAAAAABAAWAAAAAwYAAAAAAAAFgB9AAAHgIYAAAADA7BniQ8wPLjAACqA7R3QACSBAAhhwAYuaG4ZtgIIKrB0/GEpAhgmADIyUcQgAAOBACAQACDAAAIAQCAAQYAAAAAAAAAAA==

> <PUBCHEM_IUPAC_OPENEYE_NAME>
3-[(2,4-dichlorophenyl)methylamino]-4-(1H-indazol-5-ylamino)cyclobut-3-ene-1,2-dione

> <PUBCHEM_IUPAC_CAS_NAME>
3-[(2,4-dichlorophenyl)methylamino]-4-(1H-indazol-5-ylamino)cyclobut-3-ene-1,2-dione

> <PUBCHEM_IUPAC_NAME_MARKUP>
3-[(2,4-dichlorophenyl)methylamino]-4-(1<I>H</I>-indazol-5-ylamino)cyclobut-3-ene-1,2-dione

> <PUBCHEM_IUPAC_NAME>
3-[(2,4-dichlorophenyl)methylamino]-4-(1H-indazol-5-ylamino)cyclobut-3-ene-1,2-dione

> <PUBCHEM_IUPAC_SYSTEMATIC_NAME>
3-[(2,4-dichlorophenyl)methylamino]-4-(1H-indazol-5-ylamino)cyclobut-3-ene-1,2-dione

> <PUBCHEM_IUPAC_TRADITIONAL_NAME>
3-[(2,4-dichlorobenzyl)amino]-4-(1H-indazol-5-ylamino)cyclobut-3-ene-1,2-quinone

> <PUBCHEM_IUPAC_INCHI>
InChI=1S/C18H12Cl2N4O2/c19-11-2-1-9(13(20)6-11)7-21-15-16(18(26)17(15)25)23-12-3-4-14-10(5-12)8-22-24-14/h1-6,8,21,23H,7H2,(H,22,24)

> <PUBCHEM_IUPAC_INCHIKEY>
LOCWELCIOZHZHE-UHFFFAOYSA-N

> <PUBCHEM_XLOGP3_AA>
3.9

> <PUBCHEM_EXACT_MASS>
386.0337310

> <PUBCHEM_MOLECULAR_FORMULA>
C18H12Cl2N4O2

> <PUBCHEM_MOLECULAR_WEIGHT>
387.2

> <PUBCHEM_SMILES>
C1=CC2=C(C=C1NC3=C(C(=O)C3=O)NCC4=C(C=C(C=C4)Cl)Cl)C=NN2

> <PUBCHEM_OPENEYE_CAN_SMILES>
C1=CC2=C(C=C1NC3=C(C(=O)C3=O)NCC4=C(C=C(C=C4)Cl)Cl)C=NN2

> <PUBCHEM_OPENEYE_ISO_SMILES>
C1=CC2=C(C=C1NC3=C(C(=O)C3=O)NCC4=C(C=C(C=C4)Cl)Cl)C=NN2

> <PUBCHEM_CACTVS_TPSA>
86.9

> <PUBCHEM_MONOISOTOPIC_WEIGHT>
386.0337310

> <PUBCHEM_TOTAL_CHARGE>
0

> <PUBCHEM_HEAVY_ATOM_COUNT>
26

> <PUBCHEM_ATOM_DEF_STEREO_COUNT>
0

> <PUBCHEM_ATOM_UDEF_STEREO_COUNT>
0

> <PUBCHEM_BOND_DEF_STEREO_COUNT>
0

> <PUBCHEM_BOND_UDEF_STEREO_COUNT>
0

> <PUBCHEM_ISOTOPIC_ATOM_COUNT>
0

> <PUBCHEM_COMPONENT_COUNT>
1

> <PUBCHEM_CACTVS_TAUTO_COUNT>
-1

> <PUBCHEM_COORDINATE_TYPE>
1
5
255

> <PUBCHEM_BONDANNOTATIONS>
10  12  8
11  12  8
14  17  8
14  19  8
15  17  8
15  18  8
15  23  8
16  21  8
16  22  8
18  20  8
19  20  8
21  24  8
22  25  8
24  26  8
25  26  8
7  18  8
7  8  8
8  23  8
9  10  8
9  11  8

$$$$
