24955953
  -OEChem-03192523252D

 74 77  0     0  0  0  0  0  0999 V2000
    7.7331   -3.2500    0.0000 O   0  0  0  0  0  0  0  0  0  0  0  0
    4.2690    5.7500    0.0000 N   0  0  0  0  0  0  0  0  0  0  0  0
    5.1350    6.2500    0.0000 N   0  0  0  0  0  0  0  0  0  0  0  0
    9.4651   -3.2500    0.0000 N   0  0  0  0  0  0  0  0  0  0  0  0
    2.5369    5.7500    0.0000 N   0  0  0  0  0  0  0  0  0  0  0  0
    8.5991   -4.7500    0.0000 N   0  0  0  0  0  0  0  0  0  0  0  0
    8.5991   -5.7500    0.0000 N   0  0  0  0  0  0  0  0  0  0  0  0
    6.0010    1.7500    0.0000 C   0  0  0  0  0  0  0  0  0  0  0  0
    6.8671    1.2500    0.0000 C   0  0  0  0  0  0  0  0  0  0  0  0
    6.0010    2.7500    0.0000 C   0  0  0  0  0  0  0  0  0  0  0  0
    6.8671    0.2500    0.0000 C   0  0  0  0  0  0  0  0  0  0  0  0
    5.1350    3.2500    0.0000 C   0  0  0  0  0  0  0  0  0  0  0  0
    7.7331   -0.2500    0.0000 C   0  0  0  0  0  0  0  0  0  0  0  0
    5.1350    4.2500    0.0000 C   0  0  0  0  0  0  0  0  0  0  0  0
    7.7331   -1.2500    0.0000 C   0  0  0  0  0  0  0  0  0  0  0  0
    4.2690    4.7500    0.0000 C   0  0  0  0  0  0  0  0  0  0  0  0
    8.5991   -1.7500    0.0000 C   0  0  0  0  0  0  0  0  0  0  0  0
    8.5991   -2.7500    0.0000 C   0  0  0  0  0  0  0  0  0  0  0  0
    3.4030    6.2500    0.0000 C   0  0  0  0  0  0  0  0  0  0  0  0
    5.1350    7.2500    0.0000 C   0  0  0  0  0  0  0  0  0  0  0  0
    3.4030    7.2500    0.0000 C   0  0  0  0  0  0  0  0  0  0  0  0
    4.2690    7.7500    0.0000 C   0  0  0  0  0  0  0  0  0  0  0  0
    6.0010    7.7500    0.0000 C   0  0  0  0  0  0  0  0  0  0  0  0
    9.4651   -4.2500    0.0000 C   0  0  0  0  0  0  0  0  0  0  0  0
    6.0010    8.7500    0.0000 C   0  0  0  0  0  0  0  0  0  0  0  0
    6.8671    7.2500    0.0000 C   0  0  0  0  0  0  0  0  0  0  0  0
   10.3312   -4.7500    0.0000 C   0  0  0  0  0  0  0  0  0  0  0  0
    6.8671    9.2500    0.0000 C   0  0  0  0  0  0  0  0  0  0  0  0
    7.7331    7.7500    0.0000 C   0  0  0  0  0  0  0  0  0  0  0  0
   10.3312   -5.7500    0.0000 C   0  0  0  0  0  0  0  0  0  0  0  0
    7.7331    8.7500    0.0000 C   0  0  0  0  0  0  0  0  0  0  0  0
    9.4651   -6.2500    0.0000 C   0  0  0  0  0  0  0  0  0  0  0  0
    9.4651   -7.2500    0.0000 C   0  0  0  0  0  0  0  0  0  0  0  0
   10.3312   -7.7500    0.0000 C   0  0  0  0  0  0  0  0  0  0  0  0
    8.5991   -7.7500    0.0000 C   0  0  0  0  0  0  0  0  0  0  0  0
   10.3312   -8.7500    0.0000 C   0  0  0  0  0  0  0  0  0  0  0  0
    8.5991   -8.7500    0.0000 C   0  0  0  0  0  0  0  0  0  0  0  0
    9.4651   -9.2500    0.0000 C   0  0  0  0  0  0  0  0  0  0  0  0
    5.3905    1.8577    0.0000 H   0  0  0  0  0  0  0  0  0  0  0  0
    5.7890    1.1674    0.0000 H   0  0  0  0  0  0  0  0  0  0  0  0
    7.4776    1.1423    0.0000 H   0  0  0  0  0  0  0  0  0  0  0  0
    7.0791    1.8326    0.0000 H   0  0  0  0  0  0  0  0  0  0  0  0
    6.6116    2.6423    0.0000 H   0  0  0  0  0  0  0  0  0  0  0  0
    6.2131    3.3326    0.0000 H   0  0  0  0  0  0  0  0  0  0  0  0
    6.2565    0.3577    0.0000 H   0  0  0  0  0  0  0  0  0  0  0  0
    6.6550   -0.3326    0.0000 H   0  0  0  0  0  0  0  0  0  0  0  0
    4.5244    3.3577    0.0000 H   0  0  0  0  0  0  0  0  0  0  0  0
    4.9230    2.6674    0.0000 H   0  0  0  0  0  0  0  0  0  0  0  0
    8.3437   -0.3577    0.0000 H   0  0  0  0  0  0  0  0  0  0  0  0
    7.9451    0.3326    0.0000 H   0  0  0  0  0  0  0  0  0  0  0  0
    5.7456    4.1423    0.0000 H   0  0  0  0  0  0  0  0  0  0  0  0
    5.3471    4.8326    0.0000 H   0  0  0  0  0  0  0  0  0  0  0  0
    7.1225   -1.1423    0.0000 H   0  0  0  0  0  0  0  0  0  0  0  0
    7.5210   -1.8326    0.0000 H   0  0  0  0  0  0  0  0  0  0  0  0
    3.6584    4.8577    0.0000 H   0  0  0  0  0  0  0  0  0  0  0  0
    4.0569    4.1674    0.0000 H   0  0  0  0  0  0  0  0  0  0  0  0
    9.2097   -1.8577    0.0000 H   0  0  0  0  0  0  0  0  0  0  0  0
    8.8112   -1.1674    0.0000 H   0  0  0  0  0  0  0  0  0  0  0  0
    2.8660    7.5600    0.0000 H   0  0  0  0  0  0  0  0  0  0  0  0
   10.0021   -2.9400    0.0000 H   0  0  0  0  0  0  0  0  0  0  0  0
    4.2690    8.3700    0.0000 H   0  0  0  0  0  0  0  0  0  0  0  0
    2.0000    6.0600    0.0000 H   0  0  0  0  0  0  0  0  0  0  0  0
    5.4641    9.0600    0.0000 H   0  0  0  0  0  0  0  0  0  0  0  0
    6.8671    6.6300    0.0000 H   0  0  0  0  0  0  0  0  0  0  0  0
   10.8681   -4.4400    0.0000 H   0  0  0  0  0  0  0  0  0  0  0  0
    6.8671    9.8700    0.0000 H   0  0  0  0  0  0  0  0  0  0  0  0
    8.2700    7.4400    0.0000 H   0  0  0  0  0  0  0  0  0  0  0  0
   10.8681   -6.0600    0.0000 H   0  0  0  0  0  0  0  0  0  0  0  0
    8.2700    9.0600    0.0000 H   0  0  0  0  0  0  0  0  0  0  0  0
   10.8681   -7.4400    0.0000 H   0  0  0  0  0  0  0  0  0  0  0  0
    8.0622   -7.4400    0.0000 H   0  0  0  0  0  0  0  0  0  0  0  0
   10.8681   -9.0600    0.0000 H   0  0  0  0  0  0  0  0  0  0  0  0
    8.0622   -9.0600    0.0000 H   0  0  0  0  0  0  0  0  0  0  0  0
    9.4651   -9.8700    0.0000 H   0  0  0  0  0  0  0  0  0  0  0  0
  1 18  2  0  0  0  0
  2  3  1  0  0  0  0
  2 16  1  0  0  0  0
  2 19  1  0  0  0  0
  3 20  2  0  0  0  0
  4 18  1  0  0  0  0
  4 24  1  0  0  0  0
  4 60  1  0  0  0  0
  5 19  2  0  0  0  0
  5 62  1  0  0  0  0
  6  7  1  0  0  0  0
  6 24  2  0  0  0  0
  7 32  2  0  0  0  0
  8  9  1  0  0  0  0
  8 10  1  0  0  0  0
  8 39  1  0  0  0  0
  8 40  1  0  0  0  0
  9 11  1  0  0  0  0
  9 41  1  0  0  0  0
  9 42  1  0  0  0  0
 10 12  1  0  0  0  0
 10 43  1  0  0  0  0
 10 44  1  0  0  0  0
 11 13  1  0  0  0  0
 11 45  1  0  0  0  0
 11 46  1  0  0  0  0
 12 14  1  0  0  0  0
 12 47  1  0  0  0  0
 12 48  1  0  0  0  0
 13 15  1  0  0  0  0
 13 49  1  0  0  0  0
 13 50  1  0  0  0  0
 14 16  1  0  0  0  0
 14 51  1  0  0  0  0
 14 52  1  0  0  0  0
 15 17  1  0  0  0  0
 15 53  1  0  0  0  0
 15 54  1  0  0  0  0
 16 55  1  0  0  0  0
 16 56  1  0  0  0  0
 17 18  1  0  0  0  0
 17 57  1  0  0  0  0
 17 58  1  0  0  0  0
 19 21  1  0  0  0  0
 20 22  1  0  0  0  0
 20 23  1  0  0  0  0
 21 22  2  0  0  0  0
 21 59  1  0  0  0  0
 22 61  1  0  0  0  0
 23 25  2  0  0  0  0
 23 26  1  0  0  0  0
 24 27  1  0  0  0  0
 25 28  1  0  0  0  0
 25 63  1  0  0  0  0
 26 29  2  0  0  0  0
 26 64  1  0  0  0  0
 27 30  2  0  0  0  0
 27 65  1  0  0  0  0
 28 31  2  0  0  0  0
 28 66  1  0  0  0  0
 29 31  1  0  0  0  0
 29 67  1  0  0  0  0
 30 32  1  0  0  0  0
 30 68  1  0  0  0  0
 31 69  1  0  0  0  0
 32 33  1  0  0  0  0
 33 34  2  0  0  0  0
 33 35  1  0  0  0  0
 34 36  1  0  0  0  0
 34 70  1  0  0  0  0
 35 37  2  0  0  0  0
 35 71  1  0  0  0  0
 36 38  2  0  0  0  0
 36 72  1  0  0  0  0
 37 38  1  0  0  0  0
 37 73  1  0  0  0  0
 38 74  1  0  0  0  0
M  END
> <PUBCHEM_COMPOUND_CID>
24955953

> <PUBCHEM_COMPOUND_CANONICALIZED>
1

> <PUBCHEM_CACTVS_COMPLEXITY>
783

> <PUBCHEM_CACTVS_HBOND_ACCEPTOR>
5

> <PUBCHEM_CACTVS_HBOND_DONOR>
2

> <PUBCHEM_CACTVS_ROTATABLE_BOND>
14

> <PUBCHEM_CACTVS_SUBSKEYS>
AAADcfB7oAAAAAAAAAAAAAAAAAAAAAAAAAA8YIEAAAAAAAAB0AAAHgAYAAAADAjBngQxsJLAAACqAydycACSBAKhAgAdmCE4ZJiIILLAmZGEoAhwnQLIyAcYiICOAAAAAAAAAAAAAAAAAAAAAAAAAAAAAA==

> <PUBCHEM_IUPAC_OPENEYE_NAME>
11-(6-imino-3-phenyl-pyridazin-1-yl)-N-(6-phenylpyridazin-3-yl)undecanamide

> <PUBCHEM_IUPAC_CAS_NAME>
11-(6-imino-3-phenyl-1-pyridazinyl)-N-(6-phenyl-3-pyridazinyl)undecanamide

> <PUBCHEM_IUPAC_NAME_MARKUP>
11-(6-imino-3-phenylpyridazin-1-yl)-<I>N</I>-(6-phenylpyridazin-3-yl)undecanamide

> <PUBCHEM_IUPAC_NAME>
11-(6-imino-3-phenylpyridazin-1-yl)-N-(6-phenylpyridazin-3-yl)undecanamide

> <PUBCHEM_IUPAC_SYSTEMATIC_NAME>
11-(6-azanylidene-3-phenyl-pyridazin-1-yl)-N-(6-phenylpyridazin-3-yl)undecanamide

> <PUBCHEM_IUPAC_TRADITIONAL_NAME>
11-(6-imino-3-phenyl-pyridazin-1-yl)-N-(6-phenylpyridazin-3-yl)undecanamide

> <PUBCHEM_IUPAC_INCHI>
InChI=1S/C31H36N6O/c32-29-22-20-28(26-17-11-8-12-18-26)36-37(29)24-14-6-4-2-1-3-5-13-19-31(38)33-30-23-21-27(34-35-30)25-15-9-7-10-16-25/h7-12,15-18,20-23,32H,1-6,13-14,19,24H2,(H,33,35,38)

> <PUBCHEM_IUPAC_INCHIKEY>
NIBFQYGWDOTDRS-UHFFFAOYSA-N

> <PUBCHEM_XLOGP3_AA>
6

> <PUBCHEM_EXACT_MASS>
508.29505979

> <PUBCHEM_MOLECULAR_FORMULA>
C31H36N6O

> <PUBCHEM_MOLECULAR_WEIGHT>
508.7

> <PUBCHEM_SMILES>
C1=CC=C(C=C1)C2=NN=C(C=C2)NC(=O)CCCCCCCCCCN3C(=N)C=CC(=N3)C4=CC=CC=C4

> <PUBCHEM_OPENEYE_CAN_SMILES>
C1=CC=C(C=C1)C2=NN=C(C=C2)NC(=O)CCCCCCCCCCN3C(=N)C=CC(=N3)C4=CC=CC=C4

> <PUBCHEM_OPENEYE_ISO_SMILES>
C1=CC=C(C=C1)C2=NN=C(C=C2)NC(=O)CCCCCCCCCCN3C(=N)C=CC(=N3)C4=CC=CC=C4

> <PUBCHEM_CACTVS_TPSA>
94.3

> <PUBCHEM_MONOISOTOPIC_WEIGHT>
508.29505979

> <PUBCHEM_TOTAL_CHARGE>
0

> <PUBCHEM_HEAVY_ATOM_COUNT>
38

> <PUBCHEM_ATOM_DEF_STEREO_COUNT>
0

> <PUBCHEM_ATOM_UDEF_STEREO_COUNT>
0

> <PUBCHEM_BOND_DEF_STEREO_COUNT>
0

> <PUBCHEM_BOND_UDEF_STEREO_COUNT>
0

> <PUBCHEM_ISOTOPIC_ATOM_COUNT>
0

> <PUBCHEM_COMPONENT_COUNT>
1

> <PUBCHEM_CACTVS_TAUTO_COUNT>
-1

> <PUBCHEM_COORDINATE_TYPE>
1
5
255

> <PUBCHEM_BONDANNOTATIONS>
19  21  8
2  19  8
2  3  8
20  22  8
21  22  8
23  25  8
23  26  8
24  27  8
25  28  8
26  29  8
27  30  8
28  31  8
29  31  8
3  20  8
30  32  8
33  34  8
33  35  8
34  36  8
35  37  8
36  38  8
37  38  8
6  24  8
6  7  8
7  32  8

$$$$
