201327
  -OEChem-03202500292D

 26 28  0     0  0  0  0  0  0999 V2000
    3.9491    1.8558    0.0000 O   0  0  0  0  0  0  0  0  0  0  0  0
    4.8830   -1.2358    0.0000 N   0  0  0  0  0  0  0  0  0  0  0  0
    5.3830    0.9548    0.0000 N   0  0  0  0  0  0  0  0  0  0  0  0
    5.7840   -0.8019    0.0000 C   0  0  0  0  0  0  0  0  0  0  0  0
    3.9820   -0.8019    0.0000 C   0  0  0  0  0  0  0  0  0  0  0  0
    6.0065    0.1730    0.0000 C   0  0  0  0  0  0  0  0  0  0  0  0
    3.7595    0.1730    0.0000 C   0  0  0  0  0  0  0  0  0  0  0  0
    4.3830    0.9548    0.0000 C   0  0  0  0  0  0  0  0  0  0  0  0
    6.5365   -1.5221    0.0000 C   0  0  0  0  0  0  0  0  0  0  0  0
    3.2295   -1.5221    0.0000 C   0  0  0  0  0  0  0  0  0  0  0  0
    6.9970    0.4953    0.0000 C   0  0  0  0  0  0  0  0  0  0  0  0
    2.7690    0.4954    0.0000 C   0  0  0  0  0  0  0  0  0  0  0  0
    7.5342   -1.2228    0.0000 C   0  0  0  0  0  0  0  0  0  0  0  0
    2.2318   -1.2227    0.0000 C   0  0  0  0  0  0  0  0  0  0  0  0
    7.7660   -0.2073    0.0000 C   0  0  0  0  0  0  0  0  0  0  0  0
    2.0000   -0.2072    0.0000 C   0  0  0  0  0  0  0  0  0  0  0  0
    4.8830   -1.8558    0.0000 H   0  0  0  0  0  0  0  0  0  0  0  0
    5.6520    1.5134    0.0000 H   0  0  0  0  0  0  0  0  0  0  0  0
    6.3916   -2.1249    0.0000 H   0  0  0  0  0  0  0  0  0  0  0  0
    3.3744   -2.1249    0.0000 H   0  0  0  0  0  0  0  0  0  0  0  0
    7.1280    1.1013    0.0000 H   0  0  0  0  0  0  0  0  0  0  0  0
    2.6380    1.1014    0.0000 H   0  0  0  0  0  0  0  0  0  0  0  0
    7.9871   -1.6462    0.0000 H   0  0  0  0  0  0  0  0  0  0  0  0
    1.7789   -1.6462    0.0000 H   0  0  0  0  0  0  0  0  0  0  0  0
    8.3578   -0.0222    0.0000 H   0  0  0  0  0  0  0  0  0  0  0  0
    1.4083   -0.0222    0.0000 H   0  0  0  0  0  0  0  0  0  0  0  0
  1  8  2  0  0  0  0
  2  4  1  0  0  0  0
  2  5  1  0  0  0  0
  2 17  1  0  0  0  0
  3  6  1  0  0  0  0
  3  8  1  0  0  0  0
  3 18  1  0  0  0  0
  4  6  1  0  0  0  0
  4  9  2  0  0  0  0
  5  7  1  0  0  0  0
  5 10  2  0  0  0  0
  6 11  2  0  0  0  0
  7  8  1  0  0  0  0
  7 12  2  0  0  0  0
  9 13  1  0  0  0  0
  9 19  1  0  0  0  0
 10 14  1  0  0  0  0
 10 20  1  0  0  0  0
 11 15  1  0  0  0  0
 11 21  1  0  0  0  0
 12 16  1  0  0  0  0
 12 22  1  0  0  0  0
 13 15  2  0  0  0  0
 13 23  1  0  0  0  0
 14 16  2  0  0  0  0
 14 24  1  0  0  0  0
 15 25  1  0  0  0  0
 16 26  1  0  0  0  0
M  END
> <PUBCHEM_COMPOUND_CID>
201327

> <PUBCHEM_COMPOUND_CANONICALIZED>
1

> <PUBCHEM_CACTVS_COMPLEXITY>
279

> <PUBCHEM_CACTVS_HBOND_ACCEPTOR>
2

> <PUBCHEM_CACTVS_HBOND_DONOR>
2

> <PUBCHEM_CACTVS_ROTATABLE_BOND>
0

> <PUBCHEM_CACTVS_SUBSKEYS>
AAADccBzIAAAAAAAAAAAAAAAAAAAAAAAAAAwYAAABYAAAAABQAAAHgAQAAAADAiBmAAwwILAAACIAiVSUACCAAAlAgAIiAEAdMgIYHrA1ZGUIYhglADIyccYiACOAAAAAAACACAAAAAAAAQAQAAAAAAAAA==

> <PUBCHEM_IUPAC_OPENEYE_NAME>
5,11-dihydrobenzo[b][1,4]benzodiazepin-6-one

> <PUBCHEM_IUPAC_CAS_NAME>
5,11-dihydrobenzo[b][1,4]benzodiazepin-6-one

> <PUBCHEM_IUPAC_NAME_MARKUP>
5,11-dihydrobenzo[b][1,4]benzodiazepin-6-one

> <PUBCHEM_IUPAC_NAME>
5,11-dihydrobenzo[b][1,4]benzodiazepin-6-one

> <PUBCHEM_IUPAC_SYSTEMATIC_NAME>
5,11-dihydrobenzo[b][1,4]benzodiazepin-6-one

> <PUBCHEM_IUPAC_TRADITIONAL_NAME>
5,11-dihydrobenzo[b][1,4]benzodiazepin-6-one

> <PUBCHEM_IUPAC_INCHI>
InChI=1S/C13H10N2O/c16-13-9-5-1-2-6-10(9)14-11-7-3-4-8-12(11)15-13/h1-8,14H,(H,15,16)

> <PUBCHEM_IUPAC_INCHIKEY>
KVVFXAAMMFTLGN-UHFFFAOYSA-N

> <PUBCHEM_XLOGP3_AA>
2.4

> <PUBCHEM_EXACT_MASS>
210.079312947

> <PUBCHEM_MOLECULAR_FORMULA>
C13H10N2O

> <PUBCHEM_MOLECULAR_WEIGHT>
210.23

> <PUBCHEM_SMILES>
C1=CC=C2C(=C1)C(=O)NC3=CC=CC=C3N2

> <PUBCHEM_OPENEYE_CAN_SMILES>
C1=CC=C2C(=C1)C(=O)NC3=CC=CC=C3N2

> <PUBCHEM_OPENEYE_ISO_SMILES>
C1=CC=C2C(=C1)C(=O)NC3=CC=CC=C3N2

> <PUBCHEM_CACTVS_TPSA>
41.1

> <PUBCHEM_MONOISOTOPIC_WEIGHT>
210.079312947

> <PUBCHEM_TOTAL_CHARGE>
0

> <PUBCHEM_HEAVY_ATOM_COUNT>
16

> <PUBCHEM_ATOM_DEF_STEREO_COUNT>
0

> <PUBCHEM_ATOM_UDEF_STEREO_COUNT>
0

> <PUBCHEM_BOND_DEF_STEREO_COUNT>
0

> <PUBCHEM_BOND_UDEF_STEREO_COUNT>
0

> <PUBCHEM_ISOTOPIC_ATOM_COUNT>
0

> <PUBCHEM_COMPONENT_COUNT>
1

> <PUBCHEM_CACTVS_TAUTO_COUNT>
-1

> <PUBCHEM_COORDINATE_TYPE>
1
5
255

> <PUBCHEM_BONDANNOTATIONS>
10  14  8
11  15  8
12  16  8
13  15  8
14  16  8
4  6  8
4  9  8
5  10  8
5  7  8
6  11  8
7  12  8
9  13  8

$$$$
