24905175
  -OEChem-03192523352D

 38 40  0     0  0  0  0  0  0999 V2000
    5.9209    3.5532    0.0000 F   0  0  0  0  0  0  0  0  0  0  0  0
    7.2566    2.0646    0.0000 O   0  0  0  0  0  0  0  0  0  0  0  0
    4.6783   -1.8584    0.0000 N   0  0  0  0  0  0  0  0  0  0  0  0
    5.2619   -1.0536    0.0000 N   0  0  0  0  0  0  0  0  0  0  0  0
    2.8660   -2.0536    0.0000 N   0  0  0  0  0  0  0  0  0  0  0  0
    2.0000   -0.5536    0.0000 N   0  0  0  0  0  0  0  0  0  0  0  0
    2.8660    0.9464    0.0000 N   0  0  0  0  0  0  0  0  0  0  0  0
    4.9889   -2.8089    0.0000 C   0  0  0  0  0  0  0  0  0  0  0  0
    3.7320   -1.5536    0.0000 C   0  0  0  0  0  0  0  0  0  0  0  0
    3.7320   -0.5536    0.0000 C   0  0  0  0  0  0  0  0  0  0  0  0
    4.6783   -0.2489    0.0000 C   0  0  0  0  0  0  0  0  0  0  0  0
    5.9674   -3.0151    0.0000 C   0  0  0  0  0  0  0  0  0  0  0  0
    4.3211   -3.5532    0.0000 C   0  0  0  0  0  0  0  0  0  0  0  0
    4.9889    0.7016    0.0000 C   0  0  0  0  0  0  0  0  0  0  0  0
    2.8660   -0.0536    0.0000 C   0  0  0  0  0  0  0  0  0  0  0  0
    5.9674    0.9078    0.0000 C   0  0  0  0  0  0  0  0  0  0  0  0
    4.3211    1.4459    0.0000 C   0  0  0  0  0  0  0  0  0  0  0  0
    2.0000   -1.5536    0.0000 C   0  0  0  0  0  0  0  0  0  0  0  0
    6.2781    1.8584    0.0000 C   0  0  0  0  0  0  0  0  0  0  0  0
    4.6318    2.3965    0.0000 C   0  0  0  0  0  0  0  0  0  0  0  0
    5.6103    2.6027    0.0000 C   0  0  0  0  0  0  0  0  0  0  0  0
    7.9244    1.3203    0.0000 C   0  0  0  0  0  0  0  0  0  0  0  0
    5.1815   -3.3982    0.0000 H   0  0  0  0  0  0  0  0  0  0  0  0
    5.8396   -3.6218    0.0000 H   0  0  0  0  0  0  0  0  0  0  0  0
    6.5741   -3.1430    0.0000 H   0  0  0  0  0  0  0  0  0  0  0  0
    6.0953   -2.4084    0.0000 H   0  0  0  0  0  0  0  0  0  0  0  0
    3.8596   -3.1391    0.0000 H   0  0  0  0  0  0  0  0  0  0  0  0
    3.9070   -4.0146    0.0000 H   0  0  0  0  0  0  0  0  0  0  0  0
    4.7826   -3.9672    0.0000 H   0  0  0  0  0  0  0  0  0  0  0  0
    6.3815    0.4464    0.0000 H   0  0  0  0  0  0  0  0  0  0  0  0
    3.7144    1.3181    0.0000 H   0  0  0  0  0  0  0  0  0  0  0  0
    1.4631   -1.8636    0.0000 H   0  0  0  0  0  0  0  0  0  0  0  0
    4.2177    2.8579    0.0000 H   0  0  0  0  0  0  0  0  0  0  0  0
    2.3291    1.2564    0.0000 H   0  0  0  0  0  0  0  0  0  0  0  0
    3.4030    1.2564    0.0000 H   0  0  0  0  0  0  0  0  0  0  0  0
    7.4630    0.9062    0.0000 H   0  0  0  0  0  0  0  0  0  0  0  0
    8.3385    0.8588    0.0000 H   0  0  0  0  0  0  0  0  0  0  0  0
    8.3859    1.7343    0.0000 H   0  0  0  0  0  0  0  0  0  0  0  0
  1 21  1  0  0  0  0
  2 19  1  0  0  0  0
  2 22  1  0  0  0  0
  3  4  1  0  0  0  0
  3  8  1  0  0  0  0
  3  9  1  0  0  0  0
  4 11  2  0  0  0  0
  5  9  2  0  0  0  0
  5 18  1  0  0  0  0
  6 15  1  0  0  0  0
  6 18  2  0  0  0  0
  7 15  1  0  0  0  0
  7 34  1  0  0  0  0
  7 35  1  0  0  0  0
  8 12  1  0  0  0  0
  8 13  1  0  0  0  0
  8 23  1  0  0  0  0
  9 10  1  0  0  0  0
 10 11  1  0  0  0  0
 10 15  2  0  0  0  0
 11 14  1  0  0  0  0
 12 24  1  0  0  0  0
 12 25  1  0  0  0  0
 12 26  1  0  0  0  0
 13 27  1  0  0  0  0
 13 28  1  0  0  0  0
 13 29  1  0  0  0  0
 14 16  2  0  0  0  0
 14 17  1  0  0  0  0
 16 19  1  0  0  0  0
 16 30  1  0  0  0  0
 17 20  2  0  0  0  0
 17 31  1  0  0  0  0
 18 32  1  0  0  0  0
 19 21  2  0  0  0  0
 20 21  1  0  0  0  0
 20 33  1  0  0  0  0
 22 36  1  0  0  0  0
 22 37  1  0  0  0  0
 22 38  1  0  0  0  0
M  END
> <PUBCHEM_COMPOUND_CID>
24905175

> <PUBCHEM_COMPOUND_CANONICALIZED>
1

> <PUBCHEM_CACTVS_COMPLEXITY>
385

> <PUBCHEM_CACTVS_HBOND_ACCEPTOR>
6

> <PUBCHEM_CACTVS_HBOND_DONOR>
1

> <PUBCHEM_CACTVS_ROTATABLE_BOND>
3

> <PUBCHEM_CACTVS_SUBSKEYS>
AAADceBzoQAAAAAAAAAAAAAAAAAAAWAAAAA8QAAAAAAAAFgB/AAAHwAYAAAADCzBnw43tt5IFACiAyZjZACSjCsxoKAd2CAuTJiMLqLE+duEtChsyBPI6CewwPAOAAABAAAAAAAAAAIAAAAAAAAAAAAAAA==

> <PUBCHEM_IUPAC_OPENEYE_NAME>
3-(4-fluoro-3-methoxy-phenyl)-1-isopropyl-pyrazolo[3,4-d]pyrimidin-4-amine

> <PUBCHEM_IUPAC_CAS_NAME>
3-(4-fluoro-3-methoxyphenyl)-1-propan-2-yl-4-pyrazolo[3,4-d]pyrimidinamine

> <PUBCHEM_IUPAC_NAME_MARKUP>
3-(4-fluoro-3-methoxyphenyl)-1-propan-2-ylpyrazolo[3,4-d]pyrimidin-4-amine

> <PUBCHEM_IUPAC_NAME>
3-(4-fluoro-3-methoxyphenyl)-1-propan-2-ylpyrazolo[3,4-d]pyrimidin-4-amine

> <PUBCHEM_IUPAC_SYSTEMATIC_NAME>
3-(4-fluoranyl-3-methoxy-phenyl)-1-propan-2-yl-pyrazolo[3,4-d]pyrimidin-4-amine

> <PUBCHEM_IUPAC_TRADITIONAL_NAME>
[3-(4-fluoro-3-methoxy-phenyl)-1-isopropyl-pyrazolo[3,4-d]pyrimidin-4-yl]amine

> <PUBCHEM_IUPAC_INCHI>
InChI=1S/C15H16FN5O/c1-8(2)21-15-12(14(17)18-7-19-15)13(20-21)9-4-5-10(16)11(6-9)22-3/h4-8H,1-3H3,(H2,17,18,19)

> <PUBCHEM_IUPAC_INCHIKEY>
MNJNKKYCZKBVRY-UHFFFAOYSA-N

> <PUBCHEM_XLOGP3_AA>
2.3

> <PUBCHEM_EXACT_MASS>
301.13388831

> <PUBCHEM_MOLECULAR_FORMULA>
C15H16FN5O

> <PUBCHEM_MOLECULAR_WEIGHT>
301.32

> <PUBCHEM_SMILES>
CC(C)N1C2=NC=NC(=C2C(=N1)C3=CC(=C(C=C3)F)OC)N

> <PUBCHEM_OPENEYE_CAN_SMILES>
CC(C)N1C2=NC=NC(=C2C(=N1)C3=CC(=C(C=C3)F)OC)N

> <PUBCHEM_OPENEYE_ISO_SMILES>
CC(C)N1C2=NC=NC(=C2C(=N1)C3=CC(=C(C=C3)F)OC)N

> <PUBCHEM_CACTVS_TPSA>
78.9

> <PUBCHEM_MONOISOTOPIC_WEIGHT>
301.13388831

> <PUBCHEM_TOTAL_CHARGE>
0

> <PUBCHEM_HEAVY_ATOM_COUNT>
22

> <PUBCHEM_ATOM_DEF_STEREO_COUNT>
0

> <PUBCHEM_ATOM_UDEF_STEREO_COUNT>
0

> <PUBCHEM_BOND_DEF_STEREO_COUNT>
0

> <PUBCHEM_BOND_UDEF_STEREO_COUNT>
0

> <PUBCHEM_ISOTOPIC_ATOM_COUNT>
0

> <PUBCHEM_COMPONENT_COUNT>
1

> <PUBCHEM_CACTVS_TAUTO_COUNT>
-1

> <PUBCHEM_COORDINATE_TYPE>
1
5
255

> <PUBCHEM_BONDANNOTATIONS>
10  11  8
10  15  8
14  16  8
14  17  8
16  19  8
17  20  8
19  21  8
20  21  8
3  4  8
3  9  8
4  11  8
5  18  8
5  9  8
6  15  8
6  18  8
9  10  8

$$$$
