6540003
  -OEChem-03202505502D

 50 53  0     0  0  0  0  0  0999 V2000
    4.6783   -4.3432    0.0000 S   0  0  0  0  0  0  0  0  0  0  0  0
    7.5673    0.5302    0.0000 O   0  0  0  0  0  0  0  0  0  0  0  0
    5.9209    1.0683    0.0000 N   0  0  0  0  0  0  0  0  0  0  0  0
    2.8660   -4.5385    0.0000 N   0  0  0  0  0  0  0  0  0  0  0  0
    7.2101    2.2250    0.0000 N   0  0  0  0  0  0  0  0  0  0  0  0
    2.0000   -3.0385    0.0000 N   0  0  0  0  0  0  0  0  0  0  0  0
    2.8660   -1.5385    0.0000 N   0  0  0  0  0  0  0  0  0  0  0  0
    4.6783   -2.7338    0.0000 C   0  0  0  0  0  0  0  0  0  0  0  0
    3.7320   -3.0385    0.0000 C   0  0  0  0  0  0  0  0  0  0  0  0
    4.9889   -1.7833    0.0000 C   0  0  0  0  0  0  0  0  0  0  0  0
    5.2619   -3.5385    0.0000 C   0  0  0  0  0  0  0  0  0  0  0  0
    3.7320   -4.0385    0.0000 C   0  0  0  0  0  0  0  0  0  0  0  0
    5.9674   -1.5770    0.0000 C   0  0  0  0  0  0  0  0  0  0  0  0
    4.3211   -1.0390    0.0000 C   0  0  0  0  0  0  0  0  0  0  0  0
    2.8660   -2.5385    0.0000 C   0  0  0  0  0  0  0  0  0  0  0  0
    5.6103    0.1178    0.0000 C   0  0  0  0  0  0  0  0  0  0  0  0
    6.2619   -3.5385    0.0000 C   0  0  0  0  0  0  0  0  0  0  0  0
    6.2781   -0.6265    0.0000 C   0  0  0  0  0  0  0  0  0  0  0  0
    4.6318   -0.0884    0.0000 C   0  0  0  0  0  0  0  0  0  0  0  0
    8.1886    2.4313    0.0000 C   0  0  0  0  0  0  0  0  0  0  0  0
    9.8349    1.8932    0.0000 C   0  0  0  0  0  0  0  0  0  0  0  0
    9.4778    3.5880    0.0000 C   0  0  0  0  0  0  0  0  0  0  0  0
    8.4993    3.3818    0.0000 C   0  0  0  0  0  0  0  0  0  0  0  0
    8.8564    1.6870    0.0000 C   0  0  0  0  0  0  0  0  0  0  0  0
   10.1456    2.8437    0.0000 C   0  0  0  0  0  0  0  0  0  0  0  0
    6.8994    1.2745    0.0000 C   0  0  0  0  0  0  0  0  0  0  0  0
    2.0000   -4.0385    0.0000 C   0  0  0  0  0  0  0  0  0  0  0  0
   10.5028    1.1489    0.0000 C   0  0  0  0  0  0  0  0  0  0  0  0
    9.7884    4.5385    0.0000 C   0  0  0  0  0  0  0  0  0  0  0  0
    6.3815   -2.0385    0.0000 H   0  0  0  0  0  0  0  0  0  0  0  0
    3.7144   -1.1668    0.0000 H   0  0  0  0  0  0  0  0  0  0  0  0
    6.2619   -4.1585    0.0000 H   0  0  0  0  0  0  0  0  0  0  0  0
    6.8819   -3.5385    0.0000 H   0  0  0  0  0  0  0  0  0  0  0  0
    6.2619   -2.9185    0.0000 H   0  0  0  0  0  0  0  0  0  0  0  0
    6.8848   -0.4987    0.0000 H   0  0  0  0  0  0  0  0  0  0  0  0
    4.2177    0.3730    0.0000 H   0  0  0  0  0  0  0  0  0  0  0  0
    5.5069    1.5298    0.0000 H   0  0  0  0  0  0  0  0  0  0  0  0
    8.0852    3.8432    0.0000 H   0  0  0  0  0  0  0  0  0  0  0  0
    8.6638    1.0976    0.0000 H   0  0  0  0  0  0  0  0  0  0  0  0
   10.7523    2.9716    0.0000 H   0  0  0  0  0  0  0  0  0  0  0  0
    6.7960    2.6865    0.0000 H   0  0  0  0  0  0  0  0  0  0  0  0
    1.4631   -4.3485    0.0000 H   0  0  0  0  0  0  0  0  0  0  0  0
    2.3291   -1.2285    0.0000 H   0  0  0  0  0  0  0  0  0  0  0  0
    3.4030   -1.2285    0.0000 H   0  0  0  0  0  0  0  0  0  0  0  0
   10.0413    0.7348    0.0000 H   0  0  0  0  0  0  0  0  0  0  0  0
   10.9169    0.6874    0.0000 H   0  0  0  0  0  0  0  0  0  0  0  0
   10.9643    1.5629    0.0000 H   0  0  0  0  0  0  0  0  0  0  0  0
   10.3777    4.3459    0.0000 H   0  0  0  0  0  0  0  0  0  0  0  0
    9.9810    5.1278    0.0000 H   0  0  0  0  0  0  0  0  0  0  0  0
    9.1991    4.7311    0.0000 H   0  0  0  0  0  0  0  0  0  0  0  0
  1 11  1  0  0  0  0
  1 12  1  0  0  0  0
  2 26  2  0  0  0  0
  3 16  1  0  0  0  0
  3 26  1  0  0  0  0
  3 37  1  0  0  0  0
  4 12  2  0  0  0  0
  4 27  1  0  0  0  0
  5 20  1  0  0  0  0
  5 26  1  0  0  0  0
  5 41  1  0  0  0  0
  6 15  1  0  0  0  0
  6 27  2  0  0  0  0
  7 15  1  0  0  0  0
  7 43  1  0  0  0  0
  7 44  1  0  0  0  0
  8  9  1  0  0  0  0
  8 10  1  0  0  0  0
  8 11  2  0  0  0  0
  9 12  1  0  0  0  0
  9 15  2  0  0  0  0
 10 13  2  0  0  0  0
 10 14  1  0  0  0  0
 11 17  1  0  0  0  0
 13 18  1  0  0  0  0
 13 30  1  0  0  0  0
 14 19  2  0  0  0  0
 14 31  1  0  0  0  0
 16 18  2  0  0  0  0
 16 19  1  0  0  0  0
 17 32  1  0  0  0  0
 17 33  1  0  0  0  0
 17 34  1  0  0  0  0
 18 35  1  0  0  0  0
 19 36  1  0  0  0  0
 20 23  2  0  0  0  0
 20 24  1  0  0  0  0
 21 24  2  0  0  0  0
 21 25  1  0  0  0  0
 21 28  1  0  0  0  0
 22 23  1  0  0  0  0
 22 25  2  0  0  0  0
 22 29  1  0  0  0  0
 23 38  1  0  0  0  0
 24 39  1  0  0  0  0
 25 40  1  0  0  0  0
 27 42  1  0  0  0  0
 28 45  1  0  0  0  0
 28 46  1  0  0  0  0
 28 47  1  0  0  0  0
 29 48  1  0  0  0  0
 29 49  1  0  0  0  0
 29 50  1  0  0  0  0
M  END
> <PUBCHEM_COMPOUND_CID>
6540003

> <PUBCHEM_COMPOUND_CANONICALIZED>
1

> <PUBCHEM_CACTVS_COMPLEXITY>
559

> <PUBCHEM_CACTVS_HBOND_ACCEPTOR>
5

> <PUBCHEM_CACTVS_HBOND_DONOR>
3

> <PUBCHEM_CACTVS_ROTATABLE_BOND>
3

> <PUBCHEM_CACTVS_SUBSKEYS>
AAADceB7oABAAAAAAAAAAAAAAAAAASAAAAA8YIAAAAAAAFgB/AAAHgQQAAAADAiBWgQ38dbIEAisAiZjdACD0KlxCrgJ2DAoZJiIKCLg2dGEJAxolAJoyCcQgMAOiAACQAAAAAAQAASAAAAAAAAAAAAAAA==

> <PUBCHEM_IUPAC_OPENEYE_NAME>
1-[4-(4-amino-6-methyl-thieno[2,3-d]pyrimidin-5-yl)phenyl]-3-(3,5-dimethylphenyl)urea

> <PUBCHEM_IUPAC_CAS_NAME>
1-[4-(4-amino-6-methyl-5-thieno[2,3-d]pyrimidinyl)phenyl]-3-(3,5-dimethylphenyl)urea

> <PUBCHEM_IUPAC_NAME_MARKUP>
1-[4-(4-amino-6-methylthieno[2,3-d]pyrimidin-5-yl)phenyl]-3-(3,5-dimethylphenyl)urea

> <PUBCHEM_IUPAC_NAME>
1-[4-(4-amino-6-methylthieno[2,3-d]pyrimidin-5-yl)phenyl]-3-(3,5-dimethylphenyl)urea

> <PUBCHEM_IUPAC_SYSTEMATIC_NAME>
1-[4-(4-azanyl-6-methyl-thieno[2,3-d]pyrimidin-5-yl)phenyl]-3-(3,5-dimethylphenyl)urea

> <PUBCHEM_IUPAC_TRADITIONAL_NAME>
1-[4-(4-amino-6-methyl-thieno[2,3-d]pyrimidin-5-yl)phenyl]-3-(3,5-dimethylphenyl)urea

> <PUBCHEM_IUPAC_INCHI>
InChI=1S/C22H21N5OS/c1-12-8-13(2)10-17(9-12)27-22(28)26-16-6-4-15(5-7-16)18-14(3)29-21-19(18)20(23)24-11-25-21/h4-11H,1-3H3,(H2,23,24,25)(H2,26,27,28)

> <PUBCHEM_IUPAC_INCHIKEY>
NWAUBAGBGOPJLF-UHFFFAOYSA-N

> <PUBCHEM_XLOGP3_AA>
4.5

> <PUBCHEM_EXACT_MASS>
403.14668148

> <PUBCHEM_MOLECULAR_FORMULA>
C22H21N5OS

> <PUBCHEM_MOLECULAR_WEIGHT>
403.5

> <PUBCHEM_SMILES>
CC1=CC(=CC(=C1)NC(=O)NC2=CC=C(C=C2)C3=C(SC4=NC=NC(=C34)N)C)C

> <PUBCHEM_OPENEYE_CAN_SMILES>
CC1=CC(=CC(=C1)NC(=O)NC2=CC=C(C=C2)C3=C(SC4=NC=NC(=C34)N)C)C

> <PUBCHEM_OPENEYE_ISO_SMILES>
CC1=CC(=CC(=C1)NC(=O)NC2=CC=C(C=C2)C3=C(SC4=NC=NC(=C34)N)C)C

> <PUBCHEM_CACTVS_TPSA>
121

> <PUBCHEM_MONOISOTOPIC_WEIGHT>
403.14668148

> <PUBCHEM_TOTAL_CHARGE>
0

> <PUBCHEM_HEAVY_ATOM_COUNT>
29

> <PUBCHEM_ATOM_DEF_STEREO_COUNT>
0

> <PUBCHEM_ATOM_UDEF_STEREO_COUNT>
0

> <PUBCHEM_BOND_DEF_STEREO_COUNT>
0

> <PUBCHEM_BOND_UDEF_STEREO_COUNT>
0

> <PUBCHEM_ISOTOPIC_ATOM_COUNT>
0

> <PUBCHEM_COMPONENT_COUNT>
1

> <PUBCHEM_CACTVS_TAUTO_COUNT>
-1

> <PUBCHEM_COORDINATE_TYPE>
1
5
255

> <PUBCHEM_BONDANNOTATIONS>
1  11  8
1  12  8
10  13  8
10  14  8
13  18  8
14  19  8
16  18  8
16  19  8
20  23  8
20  24  8
21  24  8
21  25  8
22  23  8
22  25  8
4  12  8
4  27  8
6  15  8
6  27  8
8  11  8
8  9  8
9  12  8
9  15  8

$$$$
