46886323
  -OEChem-03192523202D

 72 78  0     0  0  0  0  0  0999 V2000
   11.9851   -3.1775    0.0000 S   0  0  0  0  0  0  0  0  0  0  0  0
    9.5719    5.6289    0.0000 O   0  0  0  0  0  0  0  0  0  0  0  0
    5.0000   -3.2388    0.0000 O   0  0  0  0  0  0  0  0  0  0  0  0
    8.2337    4.1426    0.0000 N   0  0  0  0  0  0  0  0  0  0  0  0
   11.0388   -1.8727    0.0000 N   0  0  0  0  0  0  0  0  0  0  0  0
    7.5135    0.7542    0.0000 N   0  0  0  0  0  0  0  0  0  0  0  0
   10.0878   -3.1817    0.0000 N   0  0  0  0  0  0  0  0  0  0  0  0
    8.8006   -0.4047    0.0000 N   0  0  0  0  0  0  0  0  0  0  0  0
    9.1607    1.2895    0.0000 N   0  0  0  0  0  0  0  0  0  0  0  0
    6.5000   -4.1048    0.0000 N   0  0  0  0  0  0  0  0  0  0  0  0
    7.9247    5.0937    0.0000 C   0  0  0  0  0  0  0  0  0  0  0  0
    9.2118    3.9347    0.0000 C   0  0  0  0  0  0  0  0  0  0  0  0
    8.5938    5.8368    0.0000 C   0  0  0  0  0  0  0  0  0  0  0  0
    9.8810    4.6779    0.0000 C   0  0  0  0  0  0  0  0  0  0  0  0
    7.5646    3.3995    0.0000 C   0  0  0  0  0  0  0  0  0  0  0  0
    7.8736    2.4484    0.0000 C   0  0  0  0  0  0  0  0  0  0  0  0
    6.5864    3.6074    0.0000 C   0  0  0  0  0  0  0  0  0  0  0  0
   10.0878   -1.5637    0.0000 C   0  0  0  0  0  0  0  0  0  0  0  0
    7.2044    1.7053    0.0000 C   0  0  0  0  0  0  0  0  0  0  0  0
    9.5000   -2.3727    0.0000 C   0  0  0  0  0  0  0  0  0  0  0  0
    5.9173    2.8643    0.0000 C   0  0  0  0  0  0  0  0  0  0  0  0
    6.2263    1.9132    0.0000 C   0  0  0  0  0  0  0  0  0  0  0  0
    8.5000   -2.3727    0.0000 C   0  0  0  0  0  0  0  0  0  0  0  0
   11.0388   -2.8727    0.0000 C   0  0  0  0  0  0  0  0  0  0  0  0
    9.7788   -0.6127    0.0000 C   0  0  0  0  0  0  0  0  0  0  0  0
   11.9851   -1.5680    0.0000 C   0  0  0  0  0  0  0  0  0  0  0  0
    8.4916    0.5463    0.0000 C   0  0  0  0  0  0  0  0  0  0  0  0
    8.0000   -3.2388    0.0000 C   0  0  0  0  0  0  0  0  0  0  0  0
    8.0000   -1.5067    0.0000 C   0  0  0  0  0  0  0  0  0  0  0  0
    7.0000   -3.2388    0.0000 C   0  0  0  0  0  0  0  0  0  0  0  0
   10.4479    0.1305    0.0000 C   0  0  0  0  0  0  0  0  0  0  0  0
   12.5687   -2.3727    0.0000 C   0  0  0  0  0  0  0  0  0  0  0  0
    7.0000   -1.5067    0.0000 C   0  0  0  0  0  0  0  0  0  0  0  0
    6.5000   -2.3727    0.0000 C   0  0  0  0  0  0  0  0  0  0  0  0
   10.1389    1.0816    0.0000 C   0  0  0  0  0  0  0  0  0  0  0  0
    5.0000   -4.9708    0.0000 C   0  0  0  0  0  0  0  0  0  0  0  0
    5.5000   -4.1048    0.0000 C   0  0  0  0  0  0  0  0  0  0  0  0
    4.0000   -4.9708    0.0000 C   0  0  0  0  0  0  0  0  0  0  0  0
    3.5000   -4.1048    0.0000 C   0  0  0  0  0  0  0  0  0  0  0  0
    3.5000   -5.8368    0.0000 C   0  0  0  0  0  0  0  0  0  0  0  0
    2.5000   -4.1048    0.0000 C   0  0  0  0  0  0  0  0  0  0  0  0
    2.5000   -5.8368    0.0000 C   0  0  0  0  0  0  0  0  0  0  0  0
    2.0000   -4.9708    0.0000 C   0  0  0  0  0  0  0  0  0  0  0  0
    7.5430    5.5822    0.0000 H   0  0  0  0  0  0  0  0  0  0  0  0
    7.3772    4.8026    0.0000 H   0  0  0  0  0  0  0  0  0  0  0  0
    8.9796    3.3599    0.0000 H   0  0  0  0  0  0  0  0  0  0  0  0
    9.7376    3.6062    0.0000 H   0  0  0  0  0  0  0  0  0  0  0  0
    8.8260    6.4117    0.0000 H   0  0  0  0  0  0  0  0  0  0  0  0
    8.0680    6.1654    0.0000 H   0  0  0  0  0  0  0  0  0  0  0  0
   10.2627    4.1893    0.0000 H   0  0  0  0  0  0  0  0  0  0  0  0
   10.4284    4.9689    0.0000 H   0  0  0  0  0  0  0  0  0  0  0  0
    8.4800    2.3195    0.0000 H   0  0  0  0  0  0  0  0  0  0  0  0
    6.3948    4.1970    0.0000 H   0  0  0  0  0  0  0  0  0  0  0  0
    5.3108    2.9932    0.0000 H   0  0  0  0  0  0  0  0  0  0  0  0
    5.8114    1.4524    0.0000 H   0  0  0  0  0  0  0  0  0  0  0  0
    7.0986    0.2935    0.0000 H   0  0  0  0  0  0  0  0  0  0  0  0
   12.1777   -0.9787    0.0000 H   0  0  0  0  0  0  0  0  0  0  0  0
    8.3100   -3.7757    0.0000 H   0  0  0  0  0  0  0  0  0  0  0  0
    8.3100   -0.9698    0.0000 H   0  0  0  0  0  0  0  0  0  0  0  0
   11.0544    0.0016    0.0000 H   0  0  0  0  0  0  0  0  0  0  0  0
   13.1887   -2.3727    0.0000 H   0  0  0  0  0  0  0  0  0  0  0  0
    6.6900   -0.9698    0.0000 H   0  0  0  0  0  0  0  0  0  0  0  0
    5.8800   -2.3727    0.0000 H   0  0  0  0  0  0  0  0  0  0  0  0
   10.5537    1.5423    0.0000 H   0  0  0  0  0  0  0  0  0  0  0  0
    6.8100   -4.6417    0.0000 H   0  0  0  0  0  0  0  0  0  0  0  0
    4.8923   -5.5814    0.0000 H   0  0  0  0  0  0  0  0  0  0  0  0
    5.5826   -5.1829    0.0000 H   0  0  0  0  0  0  0  0  0  0  0  0
    3.8100   -3.5678    0.0000 H   0  0  0  0  0  0  0  0  0  0  0  0
    3.8100   -6.3738    0.0000 H   0  0  0  0  0  0  0  0  0  0  0  0
    2.1900   -3.5678    0.0000 H   0  0  0  0  0  0  0  0  0  0  0  0
    2.1900   -6.3738    0.0000 H   0  0  0  0  0  0  0  0  0  0  0  0
    1.3800   -4.9708    0.0000 H   0  0  0  0  0  0  0  0  0  0  0  0
  1 24  1  0  0  0  0
  1 32  1  0  0  0  0
  2 13  1  0  0  0  0
  2 14  1  0  0  0  0
  3 37  2  0  0  0  0
  4 11  1  0  0  0  0
  4 12  1  0  0  0  0
  4 15  1  0  0  0  0
  5 18  1  0  0  0  0
  5 24  1  0  0  0  0
  5 26  1  0  0  0  0
  6 19  1  0  0  0  0
  6 27  1  0  0  0  0
  6 56  1  0  0  0  0
  7 20  1  0  0  0  0
  7 24  2  0  0  0  0
  8 25  2  0  0  0  0
  8 27  1  0  0  0  0
  9 27  2  0  0  0  0
  9 35  1  0  0  0  0
 10 30  1  0  0  0  0
 10 37  1  0  0  0  0
 10 65  1  0  0  0  0
 11 13  1  0  0  0  0
 11 44  1  0  0  0  0
 11 45  1  0  0  0  0
 12 14  1  0  0  0  0
 12 46  1  0  0  0  0
 12 47  1  0  0  0  0
 13 48  1  0  0  0  0
 13 49  1  0  0  0  0
 14 50  1  0  0  0  0
 14 51  1  0  0  0  0
 15 16  1  0  0  0  0
 15 17  2  0  0  0  0
 16 19  2  0  0  0  0
 16 52  1  0  0  0  0
 17 21  1  0  0  0  0
 17 53  1  0  0  0  0
 18 20  2  0  0  0  0
 18 25  1  0  0  0  0
 19 22  1  0  0  0  0
 20 23  1  0  0  0  0
 21 22  2  0  0  0  0
 21 54  1  0  0  0  0
 22 55  1  0  0  0  0
 23 28  2  0  0  0  0
 23 29  1  0  0  0  0
 25 31  1  0  0  0  0
 26 32  2  0  0  0  0
 26 57  1  0  0  0  0
 28 30  1  0  0  0  0
 28 58  1  0  0  0  0
 29 33  2  0  0  0  0
 29 59  1  0  0  0  0
 30 34  2  0  0  0  0
 31 35  2  0  0  0  0
 31 60  1  0  0  0  0
 32 61  1  0  0  0  0
 33 34  1  0  0  0  0
 33 62  1  0  0  0  0
 34 63  1  0  0  0  0
 35 64  1  0  0  0  0
 36 37  1  0  0  0  0
 36 38  1  0  0  0  0
 36 66  1  0  0  0  0
 36 67  1  0  0  0  0
 38 39  2  0  0  0  0
 38 40  1  0  0  0  0
 39 41  1  0  0  0  0
 39 68  1  0  0  0  0
 40 42  2  0  0  0  0
 40 69  1  0  0  0  0
 41 43  2  0  0  0  0
 41 70  1  0  0  0  0
 42 43  1  0  0  0  0
 42 71  1  0  0  0  0
 43 72  1  0  0  0  0
M  END
> <PUBCHEM_COMPOUND_CID>
46886323

> <PUBCHEM_COMPOUND_CANONICALIZED>
1

> <PUBCHEM_CACTVS_COMPLEXITY>
902

> <PUBCHEM_CACTVS_HBOND_ACCEPTOR>
8

> <PUBCHEM_CACTVS_HBOND_DONOR>
2

> <PUBCHEM_CACTVS_ROTATABLE_BOND>
8

> <PUBCHEM_CACTVS_SUBSKEYS>
AAADceB/sABAAAAAAAAAAAAAAAAAAWLAAAA8eMECAAAWAAAB/AAAHgQQAAAADAjl3ga90ZfMHAisAzV3dACC8K1xGrhJ2C04dJiKaPLA3dGXJAholALYyCcYiMCOAAAAQAQAAAAAAACACAAAAAAAAAAAAA==

> <PUBCHEM_IUPAC_OPENEYE_NAME>
N-[3-[5-[2-(3-morpholinoanilino)pyrimidin-4-yl]imidazo[2,1-b]thiazol-6-yl]phenyl]-2-phenyl-acetamide

> <PUBCHEM_IUPAC_CAS_NAME>
N-[3-[5-[2-[3-(4-morpholinyl)anilino]-4-pyrimidinyl]-6-imidazo[2,1-b]thiazolyl]phenyl]-2-phenylacetamide

> <PUBCHEM_IUPAC_NAME_MARKUP>
<I>N</I>-[3-[5-[2-(3-morpholin-4-ylanilino)pyrimidin-4-yl]imidazo[2,1-b][1,3]thiazol-6-yl]phenyl]-2-phenylacetamide

> <PUBCHEM_IUPAC_NAME>
N-[3-[5-[2-(3-morpholin-4-ylanilino)pyrimidin-4-yl]imidazo[2,1-b][1,3]thiazol-6-yl]phenyl]-2-phenylacetamide

> <PUBCHEM_IUPAC_SYSTEMATIC_NAME>
N-[3-[5-[2-[(3-morpholin-4-ylphenyl)amino]pyrimidin-4-yl]imidazo[2,1-b][1,3]thiazol-6-yl]phenyl]-2-phenyl-ethanamide

> <PUBCHEM_IUPAC_TRADITIONAL_NAME>
N-[3-[5-[2-(3-morpholinoanilino)pyrimidin-4-yl]imidazo[2,1-b]thiazol-6-yl]phenyl]-2-phenyl-acetamide

> <PUBCHEM_IUPAC_INCHI>
InChI=1S/C33H29N7O2S/c41-29(20-23-6-2-1-3-7-23)35-25-9-4-8-24(21-25)30-31(40-16-19-43-33(40)38-30)28-12-13-34-32(37-28)36-26-10-5-11-27(22-26)39-14-17-42-18-15-39/h1-13,16,19,21-22H,14-15,17-18,20H2,(H,35,41)(H,34,36,37)

> <PUBCHEM_IUPAC_INCHIKEY>
XKZQZMSAWVDRSP-UHFFFAOYSA-N

> <PUBCHEM_XLOGP3_AA>
5.9

> <PUBCHEM_EXACT_MASS>
587.21034437

> <PUBCHEM_MOLECULAR_FORMULA>
C33H29N7O2S

> <PUBCHEM_MOLECULAR_WEIGHT>
587.7

> <PUBCHEM_SMILES>
C1COCCN1C2=CC=CC(=C2)NC3=NC=CC(=N3)C4=C(N=C5N4C=CS5)C6=CC(=CC=C6)NC(=O)CC7=CC=CC=C7

> <PUBCHEM_OPENEYE_CAN_SMILES>
C1COCCN1C2=CC=CC(=C2)NC3=NC=CC(=N3)C4=C(N=C5N4C=CS5)C6=CC(=CC=C6)NC(=O)CC7=CC=CC=C7

> <PUBCHEM_OPENEYE_ISO_SMILES>
C1COCCN1C2=CC=CC(=C2)NC3=NC=CC(=N3)C4=C(N=C5N4C=CS5)C6=CC(=CC=C6)NC(=O)CC7=CC=CC=C7

> <PUBCHEM_CACTVS_TPSA>
125

> <PUBCHEM_MONOISOTOPIC_WEIGHT>
587.21034437

> <PUBCHEM_TOTAL_CHARGE>
0

> <PUBCHEM_HEAVY_ATOM_COUNT>
43

> <PUBCHEM_ATOM_DEF_STEREO_COUNT>
0

> <PUBCHEM_ATOM_UDEF_STEREO_COUNT>
0

> <PUBCHEM_BOND_DEF_STEREO_COUNT>
0

> <PUBCHEM_BOND_UDEF_STEREO_COUNT>
0

> <PUBCHEM_ISOTOPIC_ATOM_COUNT>
0

> <PUBCHEM_COMPONENT_COUNT>
1

> <PUBCHEM_CACTVS_TAUTO_COUNT>
-1

> <PUBCHEM_COORDINATE_TYPE>
1
5
255

> <PUBCHEM_BONDANNOTATIONS>
1  24  8
1  32  8
15  16  8
15  17  8
16  19  8
17  21  8
18  20  8
19  22  8
21  22  8
23  28  8
23  29  8
25  31  8
26  32  8
28  30  8
29  33  8
30  34  8
31  35  8
33  34  8
38  39  8
38  40  8
39  41  8
40  42  8
41  43  8
42  43  8
5  18  8
5  24  8
5  26  8
7  20  8
7  24  8
8  25  8
8  27  8
9  27  8
9  35  8

$$$$
