49830410
  -OEChem-03202501122D

 80 86  0     0  0  0  0  0  0999 V2000
    8.9851   -1.8784    0.0000 S   0  0  0  0  0  0  0  0  0  0  0  0
    6.5719    6.9280    0.0000 O   0  0  0  0  0  0  0  0  0  0  0  0
    5.0000   -3.6718    0.0000 O   0  0  0  0  0  0  0  0  0  0  0  0
    5.2337    5.4417    0.0000 N   0  0  0  0  0  0  0  0  0  0  0  0
    8.0388   -0.5737    0.0000 N   0  0  0  0  0  0  0  0  0  0  0  0
    7.0878   -1.8827    0.0000 N   0  0  0  0  0  0  0  0  0  0  0  0
    4.5135    2.0533    0.0000 N   0  0  0  0  0  0  0  0  0  0  0  0
    2.5000   -1.0737    0.0000 N   0  0  0  0  0  0  0  0  0  0  0  0
    3.5000   -2.8057    0.0000 N   0  0  0  0  0  0  0  0  0  0  0  0
    5.8006    0.8943    0.0000 N   0  0  0  0  0  0  0  0  0  0  0  0
    6.1607    2.5885    0.0000 N   0  0  0  0  0  0  0  0  0  0  0  0
    4.9247    6.3927    0.0000 C   0  0  0  0  0  0  0  0  0  0  0  0
    6.2118    5.2338    0.0000 C   0  0  0  0  0  0  0  0  0  0  0  0
    5.5938    7.1359    0.0000 C   0  0  0  0  0  0  0  0  0  0  0  0
    6.8810    5.9769    0.0000 C   0  0  0  0  0  0  0  0  0  0  0  0
    4.5646    4.6985    0.0000 C   0  0  0  0  0  0  0  0  0  0  0  0
    4.8736    3.7475    0.0000 C   0  0  0  0  0  0  0  0  0  0  0  0
    7.0878   -0.2647    0.0000 C   0  0  0  0  0  0  0  0  0  0  0  0
    6.5000   -1.0737    0.0000 C   0  0  0  0  0  0  0  0  0  0  0  0
    3.5864    4.9064    0.0000 C   0  0  0  0  0  0  0  0  0  0  0  0
    5.5000   -1.0737    0.0000 C   0  0  0  0  0  0  0  0  0  0  0  0
    4.2044    3.0043    0.0000 C   0  0  0  0  0  0  0  0  0  0  0  0
    8.0388   -1.5737    0.0000 C   0  0  0  0  0  0  0  0  0  0  0  0
    4.0000   -1.9397    0.0000 C   0  0  0  0  0  0  0  0  0  0  0  0
    6.7788    0.6864    0.0000 C   0  0  0  0  0  0  0  0  0  0  0  0
    3.5000   -1.0737    0.0000 C   0  0  0  0  0  0  0  0  0  0  0  0
    5.0000   -1.9397    0.0000 C   0  0  0  0  0  0  0  0  0  0  0  0
    2.9173    4.1633    0.0000 C   0  0  0  0  0  0  0  0  0  0  0  0
    3.2263    3.2122    0.0000 C   0  0  0  0  0  0  0  0  0  0  0  0
    5.0000   -0.2077    0.0000 C   0  0  0  0  0  0  0  0  0  0  0  0
    4.0000   -0.2077    0.0000 C   0  0  0  0  0  0  0  0  0  0  0  0
    8.9851   -0.2690    0.0000 C   0  0  0  0  0  0  0  0  0  0  0  0
    5.4916    1.8454    0.0000 C   0  0  0  0  0  0  0  0  0  0  0  0
    7.4479    1.4295    0.0000 C   0  0  0  0  0  0  0  0  0  0  0  0
    9.5687   -1.0737    0.0000 C   0  0  0  0  0  0  0  0  0  0  0  0
    2.0000   -0.2077    0.0000 C   0  0  0  0  0  0  0  0  0  0  0  0
    2.0000   -1.9397    0.0000 C   0  0  0  0  0  0  0  0  0  0  0  0
    4.0000   -3.6718    0.0000 C   0  0  0  0  0  0  0  0  0  0  0  0
    7.1389    2.3806    0.0000 C   0  0  0  0  0  0  0  0  0  0  0  0
    3.5000   -4.5378    0.0000 C   0  0  0  0  0  0  0  0  0  0  0  0
    4.0000   -5.4038    0.0000 C   0  0  0  0  0  0  0  0  0  0  0  0
    3.5000   -6.2698    0.0000 C   0  0  0  0  0  0  0  0  0  0  0  0
    5.0000   -5.4038    0.0000 C   0  0  0  0  0  0  0  0  0  0  0  0
    4.0000   -7.1359    0.0000 C   0  0  0  0  0  0  0  0  0  0  0  0
    5.5000   -6.2698    0.0000 C   0  0  0  0  0  0  0  0  0  0  0  0
    5.0000   -7.1359    0.0000 C   0  0  0  0  0  0  0  0  0  0  0  0
    4.5430    6.8813    0.0000 H   0  0  0  0  0  0  0  0  0  0  0  0
    4.3772    6.1016    0.0000 H   0  0  0  0  0  0  0  0  0  0  0  0
    5.9796    4.6589    0.0000 H   0  0  0  0  0  0  0  0  0  0  0  0
    6.7376    4.9052    0.0000 H   0  0  0  0  0  0  0  0  0  0  0  0
    5.8261    7.7107    0.0000 H   0  0  0  0  0  0  0  0  0  0  0  0
    5.0680    7.4644    0.0000 H   0  0  0  0  0  0  0  0  0  0  0  0
    7.2627    5.4883    0.0000 H   0  0  0  0  0  0  0  0  0  0  0  0
    7.4284    6.2680    0.0000 H   0  0  0  0  0  0  0  0  0  0  0  0
    5.4800    3.6186    0.0000 H   0  0  0  0  0  0  0  0  0  0  0  0
    3.3948    5.4961    0.0000 H   0  0  0  0  0  0  0  0  0  0  0  0
    5.3100   -2.4766    0.0000 H   0  0  0  0  0  0  0  0  0  0  0  0
    2.3108    4.2922    0.0000 H   0  0  0  0  0  0  0  0  0  0  0  0
    5.3100    0.3293    0.0000 H   0  0  0  0  0  0  0  0  0  0  0  0
    2.8114    2.7515    0.0000 H   0  0  0  0  0  0  0  0  0  0  0  0
    3.6900    0.3293    0.0000 H   0  0  0  0  0  0  0  0  0  0  0  0
    4.0986    1.5925    0.0000 H   0  0  0  0  0  0  0  0  0  0  0  0
    9.1777    0.3204    0.0000 H   0  0  0  0  0  0  0  0  0  0  0  0
    2.8800   -2.8057    0.0000 H   0  0  0  0  0  0  0  0  0  0  0  0
    8.0544    1.3006    0.0000 H   0  0  0  0  0  0  0  0  0  0  0  0
   10.1887   -1.0737    0.0000 H   0  0  0  0  0  0  0  0  0  0  0  0
    2.5369    0.1023    0.0000 H   0  0  0  0  0  0  0  0  0  0  0  0
    1.6900    0.3293    0.0000 H   0  0  0  0  0  0  0  0  0  0  0  0
    1.4631   -0.5177    0.0000 H   0  0  0  0  0  0  0  0  0  0  0  0
    1.4631   -1.6297    0.0000 H   0  0  0  0  0  0  0  0  0  0  0  0
    1.6900   -2.4766    0.0000 H   0  0  0  0  0  0  0  0  0  0  0  0
    2.5369   -2.2497    0.0000 H   0  0  0  0  0  0  0  0  0  0  0  0
    7.5537    2.8413    0.0000 H   0  0  0  0  0  0  0  0  0  0  0  0
    3.0250   -4.1393    0.0000 H   0  0  0  0  0  0  0  0  0  0  0  0
    3.0250   -4.9363    0.0000 H   0  0  0  0  0  0  0  0  0  0  0  0
    2.8800   -6.2698    0.0000 H   0  0  0  0  0  0  0  0  0  0  0  0
    5.3100   -4.8669    0.0000 H   0  0  0  0  0  0  0  0  0  0  0  0
    3.6900   -7.6728    0.0000 H   0  0  0  0  0  0  0  0  0  0  0  0
    6.1200   -6.2698    0.0000 H   0  0  0  0  0  0  0  0  0  0  0  0
    5.3100   -7.6728    0.0000 H   0  0  0  0  0  0  0  0  0  0  0  0
  1 23  1  0  0  0  0
  1 35  1  0  0  0  0
  2 14  1  0  0  0  0
  2 15  1  0  0  0  0
  3 38  2  0  0  0  0
  4 12  1  0  0  0  0
  4 13  1  0  0  0  0
  4 16  1  0  0  0  0
  5 18  1  0  0  0  0
  5 23  1  0  0  0  0
  5 32  1  0  0  0  0
  6 19  1  0  0  0  0
  6 23  2  0  0  0  0
  7 22  1  0  0  0  0
  7 33  1  0  0  0  0
  7 62  1  0  0  0  0
  8 26  1  0  0  0  0
  8 36  1  0  0  0  0
  8 37  1  0  0  0  0
  9 24  1  0  0  0  0
  9 38  1  0  0  0  0
  9 64  1  0  0  0  0
 10 25  2  0  0  0  0
 10 33  1  0  0  0  0
 11 33  2  0  0  0  0
 11 39  1  0  0  0  0
 12 14  1  0  0  0  0
 12 47  1  0  0  0  0
 12 48  1  0  0  0  0
 13 15  1  0  0  0  0
 13 49  1  0  0  0  0
 13 50  1  0  0  0  0
 14 51  1  0  0  0  0
 14 52  1  0  0  0  0
 15 53  1  0  0  0  0
 15 54  1  0  0  0  0
 16 17  1  0  0  0  0
 16 20  2  0  0  0  0
 17 22  2  0  0  0  0
 17 55  1  0  0  0  0
 18 19  2  0  0  0  0
 18 25  1  0  0  0  0
 19 21  1  0  0  0  0
 20 28  1  0  0  0  0
 20 56  1  0  0  0  0
 21 27  2  0  0  0  0
 21 30  1  0  0  0  0
 22 29  1  0  0  0  0
 24 26  2  0  0  0  0
 24 27  1  0  0  0  0
 25 34  1  0  0  0  0
 26 31  1  0  0  0  0
 27 57  1  0  0  0  0
 28 29  2  0  0  0  0
 28 58  1  0  0  0  0
 29 60  1  0  0  0  0
 30 31  2  0  0  0  0
 30 59  1  0  0  0  0
 31 61  1  0  0  0  0
 32 35  2  0  0  0  0
 32 63  1  0  0  0  0
 34 39  2  0  0  0  0
 34 65  1  0  0  0  0
 35 66  1  0  0  0  0
 36 67  1  0  0  0  0
 36 68  1  0  0  0  0
 36 69  1  0  0  0  0
 37 70  1  0  0  0  0
 37 71  1  0  0  0  0
 37 72  1  0  0  0  0
 38 40  1  0  0  0  0
 39 73  1  0  0  0  0
 40 41  1  0  0  0  0
 40 74  1  0  0  0  0
 40 75  1  0  0  0  0
 41 42  2  0  0  0  0
 41 43  1  0  0  0  0
 42 44  1  0  0  0  0
 42 76  1  0  0  0  0
 43 45  2  0  0  0  0
 43 77  1  0  0  0  0
 44 46  2  0  0  0  0
 44 78  1  0  0  0  0
 45 46  1  0  0  0  0
 45 79  1  0  0  0  0
 46 80  1  0  0  0  0
M  END
> <PUBCHEM_COMPOUND_CID>
49830410

> <PUBCHEM_COMPOUND_CANONICALIZED>
1

> <PUBCHEM_CACTVS_COMPLEXITY>
980

> <PUBCHEM_CACTVS_HBOND_ACCEPTOR>
9

> <PUBCHEM_CACTVS_HBOND_DONOR>
2

> <PUBCHEM_CACTVS_ROTATABLE_BOND>
9

> <PUBCHEM_CACTVS_SUBSKEYS>
AAADcfB/8ABAAAAAAAAAAAAAAAAAAWLAAAA8eMECAAAWAAAB/AAAHgQQAAAADAjl3ga/0ZfMHAisAzV3dACC8K1xGrhJ2C04dJiKaPLA3dGXJAholALYyCcYiMCOCAAAQAQAACAQAACACAAAQAAAAAAAAA==

> <PUBCHEM_IUPAC_OPENEYE_NAME>
N-[2-(dimethylamino)-5-[5-[2-(3-morpholinoanilino)pyrimidin-4-yl]imidazo[2,1-b]thiazol-6-yl]phenyl]-2-phenyl-acetamide

> <PUBCHEM_IUPAC_CAS_NAME>
N-[2-(dimethylamino)-5-[5-[2-[3-(4-morpholinyl)anilino]-4-pyrimidinyl]-6-imidazo[2,1-b]thiazolyl]phenyl]-2-phenylacetamide

> <PUBCHEM_IUPAC_NAME_MARKUP>
<I>N</I>-[2-(dimethylamino)-5-[5-[2-(3-morpholin-4-ylanilino)pyrimidin-4-yl]imidazo[2,1-b][1,3]thiazol-6-yl]phenyl]-2-phenylacetamide

> <PUBCHEM_IUPAC_NAME>
N-[2-(dimethylamino)-5-[5-[2-(3-morpholin-4-ylanilino)pyrimidin-4-yl]imidazo[2,1-b][1,3]thiazol-6-yl]phenyl]-2-phenylacetamide

> <PUBCHEM_IUPAC_SYSTEMATIC_NAME>
N-[2-(dimethylamino)-5-[5-[2-[(3-morpholin-4-ylphenyl)amino]pyrimidin-4-yl]imidazo[2,1-b][1,3]thiazol-6-yl]phenyl]-2-phenyl-ethanamide

> <PUBCHEM_IUPAC_TRADITIONAL_NAME>
N-[2-(dimethylamino)-5-[5-[2-(3-morpholinoanilino)pyrimidin-4-yl]imidazo[2,1-b]thiazol-6-yl]phenyl]-2-phenyl-acetamide

> <PUBCHEM_IUPAC_INCHI>
InChI=1S/C35H34N8O2S/c1-41(2)30-12-11-25(22-29(30)38-31(44)21-24-7-4-3-5-8-24)32-33(43-17-20-46-35(43)40-32)28-13-14-36-34(39-28)37-26-9-6-10-27(23-26)42-15-18-45-19-16-42/h3-14,17,20,22-23H,15-16,18-19,21H2,1-2H3,(H,38,44)(H,36,37,39)

> <PUBCHEM_IUPAC_INCHIKEY>
JPCWMTOYDYYXLS-UHFFFAOYSA-N

> <PUBCHEM_XLOGP3_AA>
6

> <PUBCHEM_EXACT_MASS>
630.25254353

> <PUBCHEM_MOLECULAR_FORMULA>
C35H34N8O2S

> <PUBCHEM_MOLECULAR_WEIGHT>
630.8

> <PUBCHEM_SMILES>
CN(C)C1=C(C=C(C=C1)C2=C(N3C=CSC3=N2)C4=NC(=NC=C4)NC5=CC(=CC=C5)N6CCOCC6)NC(=O)CC7=CC=CC=C7

> <PUBCHEM_OPENEYE_CAN_SMILES>
CN(C)C1=C(C=C(C=C1)C2=C(N3C=CSC3=N2)C4=NC(=NC=C4)NC5=CC(=CC=C5)N6CCOCC6)NC(=O)CC7=CC=CC=C7

> <PUBCHEM_OPENEYE_ISO_SMILES>
CN(C)C1=C(C=C(C=C1)C2=C(N3C=CSC3=N2)C4=NC(=NC=C4)NC5=CC(=CC=C5)N6CCOCC6)NC(=O)CC7=CC=CC=C7

> <PUBCHEM_CACTVS_TPSA>
128

> <PUBCHEM_MONOISOTOPIC_WEIGHT>
630.25254353

> <PUBCHEM_TOTAL_CHARGE>
0

> <PUBCHEM_HEAVY_ATOM_COUNT>
46

> <PUBCHEM_ATOM_DEF_STEREO_COUNT>
0

> <PUBCHEM_ATOM_UDEF_STEREO_COUNT>
0

> <PUBCHEM_BOND_DEF_STEREO_COUNT>
0

> <PUBCHEM_BOND_UDEF_STEREO_COUNT>
0

> <PUBCHEM_ISOTOPIC_ATOM_COUNT>
0

> <PUBCHEM_COMPONENT_COUNT>
1

> <PUBCHEM_CACTVS_TAUTO_COUNT>
-1

> <PUBCHEM_COORDINATE_TYPE>
1
5
255

> <PUBCHEM_BONDANNOTATIONS>
1  23  8
1  35  8
10  25  8
10  33  8
11  33  8
11  39  8
16  17  8
16  20  8
17  22  8
18  19  8
20  28  8
21  27  8
21  30  8
22  29  8
24  26  8
24  27  8
25  34  8
26  31  8
28  29  8
30  31  8
32  35  8
34  39  8
41  42  8
41  43  8
42  44  8
43  45  8
44  46  8
45  46  8
5  18  8
5  23  8
5  32  8
6  19  8
6  23  8

$$$$
