2827827
  -OEChem-03202502542D

 32 33  0     0  0  0  0  0  0999 V2000
    5.4641    1.8623    0.0000 O   0  0  0  0  0  0  0  0  0  0  0  0
    7.2125   -2.1723    0.0000 O   0  0  0  0  0  0  0  0  0  0  0  0
    6.3301   -0.6377    0.0000 N   0  0  0  0  0  0  0  0  0  0  0  0
    2.8660    0.3623    0.0000 N   0  0  0  0  0  0  0  0  0  0  0  0
    7.2241    0.8970    0.0000 N   0  0  0  0  0  0  0  0  0  0  0  0
    4.5981    0.3623    0.0000 C   0  0  0  0  0  0  0  0  0  0  0  0
    3.7320    0.8623    0.0000 C   0  0  0  0  0  0  0  0  0  0  0  0
    6.3301    0.3623    0.0000 C   0  0  0  0  0  0  0  0  0  0  0  0
    5.4641    0.8623    0.0000 C   0  0  0  0  0  0  0  0  0  0  0  0
    4.5981   -0.6377    0.0000 C   0  0  0  0  0  0  0  0  0  0  0  0
    5.4641   -1.1377    0.0000 C   0  0  0  0  0  0  0  0  0  0  0  0
    7.2241   -1.1724    0.0000 C   0  0  0  0  0  0  0  0  0  0  0  0
    8.1301    0.3831    0.0000 C   0  0  0  0  0  0  0  0  0  0  0  0
    2.0000    0.8623    0.0000 C   0  0  0  0  0  0  0  0  0  0  0  0
    2.8660   -0.6377    0.0000 C   0  0  0  0  0  0  0  0  0  0  0  0
    8.1301   -0.6585    0.0000 C   0  0  0  0  0  0  0  0  0  0  0  0
    8.9942    0.8864    0.0000 C   0  0  0  0  0  0  0  0  0  0  0  0
    4.1306    1.3372    0.0000 H   0  0  0  0  0  0  0  0  0  0  0  0
    3.3335    1.3372    0.0000 H   0  0  0  0  0  0  0  0  0  0  0  0
    4.0611   -0.9477    0.0000 H   0  0  0  0  0  0  0  0  0  0  0  0
    5.4641   -1.7577    0.0000 H   0  0  0  0  0  0  0  0  0  0  0  0
    2.3100    1.3992    0.0000 H   0  0  0  0  0  0  0  0  0  0  0  0
    1.4631    1.1723    0.0000 H   0  0  0  0  0  0  0  0  0  0  0  0
    1.6900    0.3254    0.0000 H   0  0  0  0  0  0  0  0  0  0  0  0
    2.2460   -0.6377    0.0000 H   0  0  0  0  0  0  0  0  0  0  0  0
    2.8660   -1.2577    0.0000 H   0  0  0  0  0  0  0  0  0  0  0  0
    3.4860   -0.6377    0.0000 H   0  0  0  0  0  0  0  0  0  0  0  0
    8.6659   -0.9706    0.0000 H   0  0  0  0  0  0  0  0  0  0  0  0
    9.3063    0.3507    0.0000 H   0  0  0  0  0  0  0  0  0  0  0  0
    9.5300    1.1985    0.0000 H   0  0  0  0  0  0  0  0  0  0  0  0
    8.6822    1.4222    0.0000 H   0  0  0  0  0  0  0  0  0  0  0  0
    4.9272    2.1723    0.0000 H   0  0  0  0  0  0  0  0  0  0  0  0
  1  9  1  0  0  0  0
  1 32  1  0  0  0  0
  2 12  2  0  0  0  0
  3  8  1  0  0  0  0
  3 11  1  0  0  0  0
  3 12  1  0  0  0  0
  4  7  1  0  0  0  0
  4 14  1  0  0  0  0
  4 15  1  0  0  0  0
  5  8  2  0  0  0  0
  5 13  1  0  0  0  0
  6  7  1  0  0  0  0
  6  9  2  0  0  0  0
  6 10  1  0  0  0  0
  7 18  1  0  0  0  0
  7 19  1  0  0  0  0
  8  9  1  0  0  0  0
 10 11  2  0  0  0  0
 10 20  1  0  0  0  0
 11 21  1  0  0  0  0
 12 16  1  0  0  0  0
 13 16  2  0  0  0  0
 13 17  1  0  0  0  0
 14 22  1  0  0  0  0
 14 23  1  0  0  0  0
 14 24  1  0  0  0  0
 15 25  1  0  0  0  0
 15 26  1  0  0  0  0
 15 27  1  0  0  0  0
 16 28  1  0  0  0  0
 17 29  1  0  0  0  0
 17 30  1  0  0  0  0
 17 31  1  0  0  0  0
M  END
> <PUBCHEM_COMPOUND_CID>
2827827

> <PUBCHEM_COMPOUND_CANONICALIZED>
1

> <PUBCHEM_CACTVS_COMPLEXITY>
484

> <PUBCHEM_CACTVS_HBOND_ACCEPTOR>
4

> <PUBCHEM_CACTVS_HBOND_DONOR>
1

> <PUBCHEM_CACTVS_ROTATABLE_BOND>
2

> <PUBCHEM_CACTVS_SUBSKEYS>
AAADccBzMAAAAAAAAAAAAAAAAAAAAAAAAAAgQAAAAAAAAACAAAAAHgAACAAADAzBgAQDAAMAAgCoAid2dASAAAEgIgAJCAAIAFgKAAAACQAEAAAABgCQgUAAAAAAAAAAAAAAAAAAAAAAAAAAAAAAAAAAAA==

> <PUBCHEM_IUPAC_OPENEYE_NAME>
8-[(dimethylamino)methyl]-9-hydroxy-2-methyl-pyrido[1,2-a]pyrimidin-4-one

> <PUBCHEM_IUPAC_CAS_NAME>
8-[(dimethylamino)methyl]-9-hydroxy-2-methyl-4-pyrido[1,2-a]pyrimidinone

> <PUBCHEM_IUPAC_NAME_MARKUP>
8-[(dimethylamino)methyl]-9-hydroxy-2-methylpyrido[1,2-a]pyrimidin-4-one

> <PUBCHEM_IUPAC_NAME>
8-[(dimethylamino)methyl]-9-hydroxy-2-methylpyrido[1,2-a]pyrimidin-4-one

> <PUBCHEM_IUPAC_SYSTEMATIC_NAME>
8-[(dimethylamino)methyl]-2-methyl-9-oxidanyl-pyrido[1,2-a]pyrimidin-4-one

> <PUBCHEM_IUPAC_TRADITIONAL_NAME>
8-[(dimethylamino)methyl]-9-hydroxy-2-methyl-pyrido[1,2-a]pyrimidin-4-one

> <PUBCHEM_IUPAC_INCHI>
InChI=1S/C12H15N3O2/c1-8-6-10(16)15-5-4-9(7-14(2)3)11(17)12(15)13-8/h4-6,17H,7H2,1-3H3

> <PUBCHEM_IUPAC_INCHIKEY>
RGNHKJWHFIPHIM-UHFFFAOYSA-N

> <PUBCHEM_XLOGP3_AA>
-0.3

> <PUBCHEM_EXACT_MASS>
233.116426730

> <PUBCHEM_MOLECULAR_FORMULA>
C12H15N3O2

> <PUBCHEM_MOLECULAR_WEIGHT>
233.27

> <PUBCHEM_SMILES>
CC1=CC(=O)N2C=CC(=C(C2=N1)O)CN(C)C

> <PUBCHEM_OPENEYE_CAN_SMILES>
CC1=CC(=O)N2C=CC(=C(C2=N1)O)CN(C)C

> <PUBCHEM_OPENEYE_ISO_SMILES>
CC1=CC(=O)N2C=CC(=C(C2=N1)O)CN(C)C

> <PUBCHEM_CACTVS_TPSA>
56.1

> <PUBCHEM_MONOISOTOPIC_WEIGHT>
233.116426730

> <PUBCHEM_TOTAL_CHARGE>
0

> <PUBCHEM_HEAVY_ATOM_COUNT>
17

> <PUBCHEM_ATOM_DEF_STEREO_COUNT>
0

> <PUBCHEM_ATOM_UDEF_STEREO_COUNT>
0

> <PUBCHEM_BOND_DEF_STEREO_COUNT>
0

> <PUBCHEM_BOND_UDEF_STEREO_COUNT>
0

> <PUBCHEM_ISOTOPIC_ATOM_COUNT>
0

> <PUBCHEM_COMPONENT_COUNT>
1

> <PUBCHEM_CACTVS_TAUTO_COUNT>
-1

> <PUBCHEM_COORDINATE_TYPE>
1
5
255

> <PUBCHEM_BONDANNOTATIONS>
10  11  8
12  16  8
13  16  8
3  11  8
3  12  8
3  8  8
5  13  8
5  8  8
6  10  8
6  9  8
8  9  8

$$$$
