44570554
  -OEChem-03202506512D

 46 47  0     1  0  0  0  0  0999 V2000
    8.9282    5.4050    0.0000 I   0  0  0  0  0  0  0  0  0  0  0  0
    7.1962    0.4050    0.0000 F   0  0  0  0  0  0  0  0  0  0  0  0
    7.1962    2.4050    0.0000 F   0  0  0  0  0  0  0  0  0  0  0  0
    5.4641    5.4050    0.0000 F   0  0  0  0  0  0  0  0  0  0  0  0
    5.4641   -2.5950    0.0000 O   0  0  0  0  0  0  0  0  0  0  0  0
    2.8660    1.9050    0.0000 O   0  0  0  0  0  0  0  0  0  0  0  0
    2.0000   -3.5950    0.0000 O   0  0  0  0  0  0  0  0  0  0  0  0
    3.7320    3.4050    0.0000 O   0  0  0  0  0  0  0  0  0  0  0  0
    4.5981   -1.0950    0.0000 N   0  0  0  0  0  0  0  0  0  0  0  0
    5.4641    3.4050    0.0000 N   0  0  0  0  0  0  0  0  0  0  0  0
    2.8660   -2.0950    0.0000 N   0  0  0  0  0  0  0  0  0  0  0  0
    2.8660   -5.0950    0.0000 N   0  0  0  0  0  0  0  0  0  0  0  0
    5.4641    0.4050    0.0000 C   0  0  0  0  0  0  0  0  0  0  0  0
    5.4641   -0.5950    0.0000 C   0  0  0  0  0  0  0  0  0  0  0  0
    3.7320   -2.5950    0.0000 C   0  0  2  0  0  0  0  0  0  0  0  0
    5.4641    2.4050    0.0000 C   0  0  0  0  0  0  0  0  0  0  0  0
    4.5981    0.9050    0.0000 C   0  0  0  0  0  0  0  0  0  0  0  0
    4.5981    1.9050    0.0000 C   0  0  0  0  0  0  0  0  0  0  0  0
    4.5981   -2.0950    0.0000 C   0  0  0  0  0  0  0  0  0  0  0  0
    6.3301    0.9050    0.0000 C   0  0  0  0  0  0  0  0  0  0  0  0
    3.7320   -3.5950    0.0000 C   0  0  0  0  0  0  0  0  0  0  0  0
    6.3301    1.9050    0.0000 C   0  0  0  0  0  0  0  0  0  0  0  0
    6.3301    3.9050    0.0000 C   0  0  0  0  0  0  0  0  0  0  0  0
    2.8660   -4.0950    0.0000 C   0  0  0  0  0  0  0  0  0  0  0  0
    3.7320    2.4050    0.0000 C   0  0  0  0  0  0  0  0  0  0  0  0
    6.3301    4.9050    0.0000 C   0  0  0  0  0  0  0  0  0  0  0  0
    7.1962    3.4050    0.0000 C   0  0  0  0  0  0  0  0  0  0  0  0
    7.1962    5.4050    0.0000 C   0  0  0  0  0  0  0  0  0  0  0  0
    8.0622    3.9050    0.0000 C   0  0  0  0  0  0  0  0  0  0  0  0
    8.0622    4.9050    0.0000 C   0  0  0  0  0  0  0  0  0  0  0  0
    5.6762   -1.1776    0.0000 H   0  0  0  0  0  0  0  0  0  0  0  0
    6.0747   -0.4873    0.0000 H   0  0  0  0  0  0  0  0  0  0  0  0
    3.7320   -1.9750    0.0000 H   0  0  0  0  0  0  0  0  0  0  0  0
    4.0611    0.5950    0.0000 H   0  0  0  0  0  0  0  0  0  0  0  0
    4.0611   -0.7850    0.0000 H   0  0  0  0  0  0  0  0  0  0  0  0
    3.9441   -4.1776    0.0000 H   0  0  0  0  0  0  0  0  0  0  0  0
    4.3426   -3.4873    0.0000 H   0  0  0  0  0  0  0  0  0  0  0  0
    4.9272    3.7150    0.0000 H   0  0  0  0  0  0  0  0  0  0  0  0
    2.3291   -2.4050    0.0000 H   0  0  0  0  0  0  0  0  0  0  0  0
    2.8660   -1.4750    0.0000 H   0  0  0  0  0  0  0  0  0  0  0  0
    7.1962    2.7850    0.0000 H   0  0  0  0  0  0  0  0  0  0  0  0
    7.1962    6.0250    0.0000 H   0  0  0  0  0  0  0  0  0  0  0  0
    8.5991    3.5950    0.0000 H   0  0  0  0  0  0  0  0  0  0  0  0
    2.3291   -5.4050    0.0000 H   0  0  0  0  0  0  0  0  0  0  0  0
    3.4030   -5.4050    0.0000 H   0  0  0  0  0  0  0  0  0  0  0  0
    2.3291    2.2150    0.0000 H   0  0  0  0  0  0  0  0  0  0  0  0
  1 30  1  0  0  0  0
  2 20  1  0  0  0  0
  3 22  1  0  0  0  0
  4 26  1  0  0  0  0
  5 19  2  0  0  0  0
  6 25  1  0  0  0  0
  6 46  1  0  0  0  0
  7 24  2  0  0  0  0
  8 25  2  0  0  0  0
  9 14  1  0  0  0  0
  9 19  1  0  0  0  0
  9 35  1  0  0  0  0
 10 16  1  0  0  0  0
 10 23  1  0  0  0  0
 10 38  1  0  0  0  0
 15 11  1  6  0  0  0
 11 39  1  0  0  0  0
 11 40  1  0  0  0  0
 12 24  1  0  0  0  0
 12 44  1  0  0  0  0
 12 45  1  0  0  0  0
 13 14  1  0  0  0  0
 13 17  2  0  0  0  0
 13 20  1  0  0  0  0
 14 31  1  0  0  0  0
 14 32  1  0  0  0  0
 15 19  1  0  0  0  0
 15 21  1  0  0  0  0
 15 33  1  0  0  0  0
 16 18  2  0  0  0  0
 16 22  1  0  0  0  0
 17 18  1  0  0  0  0
 17 34  1  0  0  0  0
 18 25  1  0  0  0  0
 20 22  2  0  0  0  0
 21 24  1  0  0  0  0
 21 36  1  0  0  0  0
 21 37  1  0  0  0  0
 23 26  2  0  0  0  0
 23 27  1  0  0  0  0
 26 28  1  0  0  0  0
 27 29  2  0  0  0  0
 27 41  1  0  0  0  0
 28 30  2  0  0  0  0
 28 42  1  0  0  0  0
 29 30  1  0  0  0  0
 29 43  1  0  0  0  0
M  END
> <PUBCHEM_COMPOUND_CID>
44570554

> <PUBCHEM_COMPOUND_CANONICALIZED>
1

> <PUBCHEM_CACTVS_COMPLEXITY>
647

> <PUBCHEM_CACTVS_HBOND_ACCEPTOR>
9

> <PUBCHEM_CACTVS_HBOND_DONOR>
5

> <PUBCHEM_CACTVS_ROTATABLE_BOND>
8

> <PUBCHEM_CACTVS_SUBSKEYS>
AAADceB7uYAAAgAAAAAAAAAAAAAAAAAAAAAwYAAAAAAAAAABQAAAHwAwCAAADCjDmAwwyILAAgCIAiXSWACCAAAlAgAIiIGIbMgIZnrA1ZGUcYhm1gHI2ced2WKOCAACAAACAAAQAAQAAAQAAAAAAAAAAA==

> <PUBCHEM_IUPAC_OPENEYE_NAME>
5-[[[(2S)-2,4-diamino-4-oxo-butanoyl]amino]methyl]-3,4-difluoro-2-(2-fluoro-4-iodo-anilino)benzoic acid

> <PUBCHEM_IUPAC_CAS_NAME>
5-[[[(2S)-2,4-diamino-1,4-dioxobutyl]amino]methyl]-3,4-difluoro-2-(2-fluoro-4-iodoanilino)benzoic acid

> <PUBCHEM_IUPAC_NAME_MARKUP>
5-[[[(2<I>S</I>)-2,4-diamino-4-oxobutanoyl]amino]methyl]-3,4-difluoro-2-(2-fluoro-4-iodoanilino)benzoic acid

> <PUBCHEM_IUPAC_NAME>
5-[[[(2S)-2,4-diamino-4-oxobutanoyl]amino]methyl]-3,4-difluoro-2-(2-fluoro-4-iodoanilino)benzoic acid

> <PUBCHEM_IUPAC_SYSTEMATIC_NAME>
5-[[[(2S)-2,4-bis(azanyl)-4-oxidanylidene-butanoyl]amino]methyl]-3,4-bis(fluoranyl)-2-[(2-fluoranyl-4-iodanyl-phenyl)amino]benzoic acid

> <PUBCHEM_IUPAC_TRADITIONAL_NAME>
5-[[[(2S)-2,4-diamino-4-keto-butanoyl]amino]methyl]-3,4-difluoro-2-(2-fluoro-4-iodo-anilino)benzoic acid

> <PUBCHEM_IUPAC_INCHI>
InChI=1S/C18H16F3IN4O4/c19-10-4-8(22)1-2-12(10)26-16-9(18(29)30)3-7(14(20)15(16)21)6-25-17(28)11(23)5-13(24)27/h1-4,11,26H,5-6,23H2,(H2,24,27)(H,25,28)(H,29,30)/t11-/m0/s1

> <PUBCHEM_IUPAC_INCHIKEY>
HKMQIJIERJBQIP-NSHDSACASA-N

> <PUBCHEM_XLOGP3_AA>
-0.7

> <PUBCHEM_EXACT_MASS>
536.01684

> <PUBCHEM_MOLECULAR_FORMULA>
C18H16F3IN4O4

> <PUBCHEM_MOLECULAR_WEIGHT>
536.2

> <PUBCHEM_SMILES>
C1=CC(=C(C=C1I)F)NC2=C(C=C(C(=C2F)F)CNC(=O)[C@H](CC(=O)N)N)C(=O)O

> <PUBCHEM_OPENEYE_CAN_SMILES>
C1=CC(=C(C=C1I)F)NC2=C(C=C(C(=C2F)F)CNC(=O)C(CC(=O)N)N)C(=O)O

> <PUBCHEM_OPENEYE_ISO_SMILES>
C1=CC(=C(C=C1I)F)NC2=C(C=C(C(=C2F)F)CNC(=O)[C@H](CC(=O)N)N)C(=O)O

> <PUBCHEM_CACTVS_TPSA>
148

> <PUBCHEM_MONOISOTOPIC_WEIGHT>
536.01684

> <PUBCHEM_TOTAL_CHARGE>
0

> <PUBCHEM_HEAVY_ATOM_COUNT>
30

> <PUBCHEM_ATOM_DEF_STEREO_COUNT>
1

> <PUBCHEM_ATOM_UDEF_STEREO_COUNT>
0

> <PUBCHEM_BOND_DEF_STEREO_COUNT>
0

> <PUBCHEM_BOND_UDEF_STEREO_COUNT>
0

> <PUBCHEM_ISOTOPIC_ATOM_COUNT>
0

> <PUBCHEM_COMPONENT_COUNT>
1

> <PUBCHEM_CACTVS_TAUTO_COUNT>
-1

> <PUBCHEM_COORDINATE_TYPE>
1
5
255

> <PUBCHEM_BONDANNOTATIONS>
15  11  6
13  17  8
13  20  8
16  18  8
16  22  8
17  18  8
20  22  8
23  26  8
23  27  8
26  28  8
27  29  8
28  30  8
29  30  8

$$$$
