135536753
  -OEChem-03202501312D

 38 41  0     0  0  0  0  0  0999 V2000
    8.5669   -1.7566    0.0000 O   0  0  0  0  0  0  0  0  0  0  0  0
    6.8069    1.2780    0.0000 O   0  0  0  0  0  0  0  0  0  0  0  0
    5.0749   -1.7220    0.0000 O   0  0  0  0  0  0  0  0  0  0  0  0
    8.5553    1.3126    0.0000 O   0  0  0  0  0  0  0  0  0  0  0  0
    4.1671   -0.1271    0.0000 N   0  0  0  0  0  0  0  0  0  0  0  0
    4.9718    1.2668    0.0000 N   0  0  0  0  0  0  0  0  0  0  0  0
    5.9409   -0.2220    0.0000 C   0  0  0  0  0  0  0  0  0  0  0  0
    7.6730   -0.2220    0.0000 C   0  0  0  0  0  0  0  0  0  0  0  0
    6.8069    0.2780    0.0000 C   0  0  0  0  0  0  0  0  0  0  0  0
    5.0749    0.2780    0.0000 C   0  0  0  0  0  0  0  0  0  0  0  0
    7.6730   -1.2220    0.0000 C   0  0  0  0  0  0  0  0  0  0  0  0
    5.9409   -1.2220    0.0000 C   0  0  0  0  0  0  0  0  0  0  0  0
    3.5000    0.6099    0.0000 C   0  0  0  0  0  0  0  0  0  0  0  0
    6.8069   -1.7220    0.0000 C   0  0  0  0  0  0  0  0  0  0  0  0
    4.0000    1.4760    0.0000 C   0  0  0  0  0  0  0  0  0  0  0  0
    8.5669    0.3127    0.0000 C   0  0  0  0  0  0  0  0  0  0  0  0
    9.4730   -1.2428    0.0000 C   0  0  0  0  0  0  0  0  0  0  0  0
    9.4730   -0.2012    0.0000 C   0  0  0  0  0  0  0  0  0  0  0  0
    2.5000    0.6099    0.0000 C   0  0  0  0  0  0  0  0  0  0  0  0
    3.5000    2.3420    0.0000 C   0  0  0  0  0  0  0  0  0  0  0  0
    2.0000    1.4760    0.0000 C   0  0  0  0  0  0  0  0  0  0  0  0
    2.5000    2.3420    0.0000 C   0  0  0  0  0  0  0  0  0  0  0  0
   10.3370   -1.7461    0.0000 C   0  0  0  0  0  0  0  0  0  0  0  0
    7.6730    1.7780    0.0000 C   0  0  0  0  0  0  0  0  0  0  0  0
    4.0392   -0.7338    0.0000 H   0  0  0  0  0  0  0  0  0  0  0  0
    6.8069   -2.3420    0.0000 H   0  0  0  0  0  0  0  0  0  0  0  0
   10.0087    0.1109    0.0000 H   0  0  0  0  0  0  0  0  0  0  0  0
    2.1900    0.0730    0.0000 H   0  0  0  0  0  0  0  0  0  0  0  0
    3.8100    2.8789    0.0000 H   0  0  0  0  0  0  0  0  0  0  0  0
    1.3800    1.4760    0.0000 H   0  0  0  0  0  0  0  0  0  0  0  0
    2.1900    2.8789    0.0000 H   0  0  0  0  0  0  0  0  0  0  0  0
   10.0250   -2.2819    0.0000 H   0  0  0  0  0  0  0  0  0  0  0  0
   10.8728   -2.0582    0.0000 H   0  0  0  0  0  0  0  0  0  0  0  0
   10.6491   -1.2104    0.0000 H   0  0  0  0  0  0  0  0  0  0  0  0
    5.0749   -2.3420    0.0000 H   0  0  0  0  0  0  0  0  0  0  0  0
    7.9830    1.2411    0.0000 H   0  0  0  0  0  0  0  0  0  0  0  0
    8.2099    2.0880    0.0000 H   0  0  0  0  0  0  0  0  0  0  0  0
    7.3630    2.3150    0.0000 H   0  0  0  0  0  0  0  0  0  0  0  0
  1 11  1  0  0  0  0
  1 17  1  0  0  0  0
  2  9  1  0  0  0  0
  2 24  1  0  0  0  0
  3 12  1  0  0  0  0
  3 35  1  0  0  0  0
  4 16  2  0  0  0  0
  5 10  1  0  0  0  0
  5 13  1  0  0  0  0
  5 25  1  0  0  0  0
  6 10  2  0  0  0  0
  6 15  1  0  0  0  0
  7  9  2  0  0  0  0
  7 10  1  0  0  0  0
  7 12  1  0  0  0  0
  8  9  1  0  0  0  0
  8 11  2  0  0  0  0
  8 16  1  0  0  0  0
 11 14  1  0  0  0  0
 12 14  2  0  0  0  0
 13 15  1  0  0  0  0
 13 19  2  0  0  0  0
 14 26  1  0  0  0  0
 15 20  2  0  0  0  0
 16 18  1  0  0  0  0
 17 18  2  0  0  0  0
 17 23  1  0  0  0  0
 18 27  1  0  0  0  0
 19 21  1  0  0  0  0
 19 28  1  0  0  0  0
 20 22  1  0  0  0  0
 20 29  1  0  0  0  0
 21 22  2  0  0  0  0
 21 30  1  0  0  0  0
 22 31  1  0  0  0  0
 23 32  1  0  0  0  0
 23 33  1  0  0  0  0
 23 34  1  0  0  0  0
 24 36  1  0  0  0  0
 24 37  1  0  0  0  0
 24 38  1  0  0  0  0
M  END
> <PUBCHEM_COMPOUND_CID>
135536753

> <PUBCHEM_COMPOUND_CANONICALIZED>
1

> <PUBCHEM_CACTVS_COMPLEXITY>
537

> <PUBCHEM_CACTVS_HBOND_ACCEPTOR>
5

> <PUBCHEM_CACTVS_HBOND_DONOR>
2

> <PUBCHEM_CACTVS_ROTATABLE_BOND>
2

> <PUBCHEM_CACTVS_SUBSKEYS>
AAADccB7OAAAAAAAAAAAAAAAAAAAAWAAAAAwYIAAAAAAAFiB9AAAHgAQCAAADAyBnwIz1rbJlgCoA6ZyZACCiC2lMqAJmSE2fNiMb7bGvZuWeWjv8BfI+SeY/e7OIAACCAAIACBAAAQQABAAQAAAAAAAAA==

> <PUBCHEM_IUPAC_OPENEYE_NAME>
6-(1H-benzimidazol-2-yl)-7-hydroxy-5-methoxy-2-methyl-chromen-4-one

> <PUBCHEM_IUPAC_CAS_NAME>
6-(1H-benzimidazol-2-yl)-7-hydroxy-5-methoxy-2-methyl-1-benzopyran-4-one

> <PUBCHEM_IUPAC_NAME_MARKUP>
6-(1<I>H</I>-benzimidazol-2-yl)-7-hydroxy-5-methoxy-2-methylchromen-4-one

> <PUBCHEM_IUPAC_NAME>
6-(1H-benzimidazol-2-yl)-7-hydroxy-5-methoxy-2-methylchromen-4-one

> <PUBCHEM_IUPAC_SYSTEMATIC_NAME>
6-(1H-benzimidazol-2-yl)-5-methoxy-2-methyl-7-oxidanyl-chromen-4-one

> <PUBCHEM_IUPAC_TRADITIONAL_NAME>
6-(1H-benzimidazol-2-yl)-7-hydroxy-5-methoxy-2-methyl-chromone

> <PUBCHEM_IUPAC_INCHI>
InChI=1S/C18H14N2O4/c1-9-7-12(21)15-14(24-9)8-13(22)16(17(15)23-2)18-19-10-5-3-4-6-11(10)20-18/h3-8,22H,1-2H3,(H,19,20)

> <PUBCHEM_IUPAC_INCHIKEY>
QVNZKVACBBTKSL-UHFFFAOYSA-N

> <PUBCHEM_XLOGP3_AA>
2.8

> <PUBCHEM_EXACT_MASS>
322.09535693

> <PUBCHEM_MOLECULAR_FORMULA>
C18H14N2O4

> <PUBCHEM_MOLECULAR_WEIGHT>
322.3

> <PUBCHEM_SMILES>
CC1=CC(=O)C2=C(O1)C=C(C(=C2OC)C3=NC4=CC=CC=C4N3)O

> <PUBCHEM_OPENEYE_CAN_SMILES>
CC1=CC(=O)C2=C(O1)C=C(C(=C2OC)C3=NC4=CC=CC=C4N3)O

> <PUBCHEM_OPENEYE_ISO_SMILES>
CC1=CC(=O)C2=C(O1)C=C(C(=C2OC)C3=NC4=CC=CC=C4N3)O

> <PUBCHEM_CACTVS_TPSA>
84.4

> <PUBCHEM_MONOISOTOPIC_WEIGHT>
322.09535693

> <PUBCHEM_TOTAL_CHARGE>
0

> <PUBCHEM_HEAVY_ATOM_COUNT>
24

> <PUBCHEM_ATOM_DEF_STEREO_COUNT>
0

> <PUBCHEM_ATOM_UDEF_STEREO_COUNT>
0

> <PUBCHEM_BOND_DEF_STEREO_COUNT>
0

> <PUBCHEM_BOND_UDEF_STEREO_COUNT>
0

> <PUBCHEM_ISOTOPIC_ATOM_COUNT>
0

> <PUBCHEM_COMPONENT_COUNT>
1

> <PUBCHEM_CACTVS_TAUTO_COUNT>
-1

> <PUBCHEM_COORDINATE_TYPE>
1
5
255

> <PUBCHEM_BONDANNOTATIONS>
1  11  8
1  17  8
11  14  8
12  14  8
13  15  8
13  19  8
15  20  8
16  18  8
17  18  8
19  21  8
20  22  8
21  22  8
5  10  8
5  13  8
6  10  8
6  15  8
7  12  8
7  9  8
8  11  8
8  16  8
8  9  8

$$$$
