44460933
  -OEChem-03202506082D

105115  0     1  0  0  0  0  0999 V2000
    4.7122    0.2924    0.0000 O   0  0  0  0  0  0  0  0  0  0  0  0
    7.6415    0.4747    0.0000 O   0  0  0  0  0  0  0  0  0  0  0  0
    7.3623    1.8408    0.0000 O   0  0  0  0  0  0  0  0  0  0  0  0
    5.6303    2.8408    0.0000 O   0  0  0  0  0  0  0  0  0  0  0  0
    3.8601    1.8440    0.0000 O   0  0  0  0  0  0  0  0  0  0  0  0
    3.6123   -2.1618    0.0000 O   0  0  0  0  0  0  0  0  0  0  0  0
    8.8539   -6.2949    0.0000 O   0  0  0  0  0  0  0  0  0  0  0  0
    8.5053   -3.2323    0.0000 O   0  0  0  0  0  0  0  0  0  0  0  0
    9.1756    1.1076    0.0000 O   0  0  0  0  0  0  0  0  0  0  0  0
    8.2283    0.3409    0.0000 O   0  0  0  0  0  0  0  0  0  0  0  0
    6.4963    4.3408    0.0000 O   0  0  0  0  0  0  0  0  0  0  0  0
    5.2388   -6.0574    0.0000 O   0  0  0  0  0  0  0  0  0  0  0  0
    5.7758   -3.4258    0.0000 O   0  0  0  0  0  0  0  0  0  0  0  0
   12.3824   -3.5023    0.0000 O   0  0  0  0  0  0  0  0  0  0  0  0
    7.4974   -2.7254    0.0000 O   0  0  0  0  0  0  0  0  0  0  0  0
    2.3180   -4.3031    0.0000 O   0  0  0  0  0  0  0  0  0  0  0  0
   11.7051   -5.8596    0.0000 O   0  0  0  0  0  0  0  0  0  0  0  0
   11.7874   -2.2089    0.0000 O   0  0  0  0  0  0  0  0  0  0  0  0
    3.2907   -5.9923    0.0000 O   0  0  0  0  0  0  0  0  0  0  0  0
    9.9767    4.3754    0.0000 O   0  0  0  0  0  0  0  0  0  0  0  0
    9.3465    5.2613    0.0000 O   0  0  0  0  0  0  0  0  0  0  0  0
    7.3349   -7.0290    0.0000 O   0  0  0  0  0  0  0  0  0  0  0  0
    9.7358   -2.0023    0.0000 O   0  0  0  0  0  0  0  0  0  0  0  0
   11.9422    0.9732    0.0000 O   0  0  0  0  0  0  0  0  0  0  0  0
   12.6785   -0.4753    0.0000 O   0  0  0  0  0  0  0  0  0  0  0  0
   11.8785    1.6426    0.0000 O   0  0  0  0  0  0  0  0  0  0  0  0
   11.7585    3.3650    0.0000 O   0  0  0  0  0  0  0  0  0  0  0  0
    4.9654    5.4096    0.0000 O   0  0  0  0  0  0  0  0  0  0  0  0
    7.2022    6.7010    0.0000 O   0  0  0  0  0  0  0  0  0  0  0  0
    6.5124    0.2993    0.0000 C   0  0  3  0  0  0  0  0  0  0  0  0
    6.4963    1.3409    0.0000 C   0  0  3  0  0  0  0  0  0  0  0  0
    5.6143   -0.2284    0.0000 C   0  0  3  0  0  0  0  0  0  0  0  0
    5.6303    1.8408    0.0000 C   0  0  3  0  0  0  0  0  0  0  0  0
    4.7203    1.3340    0.0000 C   0  0  2  0  0  0  0  0  0  0  0  0
    4.9117   -1.1295    0.0000 C   0  0  0  0  0  0  0  0  0  0  0  0
    4.6098   -2.2316    0.0000 C   0  0  0  0  0  0  0  0  0  0  0  0
    4.7552   -3.3650    0.0000 C   0  0  0  0  0  0  0  0  0  0  0  0
    8.7512    0.2021    0.0000 C   0  0  0  0  0  0  0  0  0  0  0  0
    8.2283    1.3409    0.0000 C   0  0  0  0  0  0  0  0  0  0  0  0
    6.4963    3.3408    0.0000 C   0  0  0  0  0  0  0  0  0  0  0  0
    5.3254   -4.3552    0.0000 C   0  0  0  0  0  0  0  0  0  0  0  0
    9.6706   -0.4764    0.0000 C   0  0  0  0  0  0  0  0  0  0  0  0
    6.2328   -5.0499    0.0000 C   0  0  0  0  0  0  0  0  0  0  0  0
    9.0944    1.8408    0.0000 C   0  0  0  0  0  0  0  0  0  0  0  0
    8.4695   -5.1866    0.0000 C   0  0  0  0  0  0  0  0  0  0  0  0
    7.3623    2.8408    0.0000 C   0  0  0  0  0  0  0  0  0  0  0  0
    7.3374   -5.3420    0.0000 C   0  0  0  0  0  0  0  0  0  0  0  0
    9.4547   -4.6076    0.0000 C   0  0  0  0  0  0  0  0  0  0  0  0
   10.2582   -1.4564    0.0000 C   0  0  0  0  0  0  0  0  0  0  0  0
   10.4236   -2.5870    0.0000 C   0  0  0  0  0  0  0  0  0  0  0  0
   10.1412   -3.6942    0.0000 C   0  0  0  0  0  0  0  0  0  0  0  0
    9.0944    2.8408    0.0000 C   0  0  0  0  0  0  0  0  0  0  0  0
    8.2283    3.3408    0.0000 C   0  0  0  0  0  0  0  0  0  0  0  0
    3.7799   -3.4270    0.0000 C   0  0  0  0  0  0  0  0  0  0  0  0
    8.3040   -4.2072    0.0000 C   0  0  0  0  0  0  0  0  0  0  0  0
    9.5592   -5.5954    0.0000 C   0  0  0  0  0  0  0  0  0  0  0  0
    4.7823   -5.1676    0.0000 C   0  0  0  0  0  0  0  0  0  0  0  0
    6.5163   -4.0979    0.0000 C   0  0  0  0  0  0  0  0  0  0  0  0
   11.4060   -3.7182    0.0000 C   0  0  0  0  0  0  0  0  0  0  0  0
    7.4364   -3.7235    0.0000 C   0  0  0  0  0  0  0  0  0  0  0  0
   10.1993    0.3455    0.0000 C   0  0  0  0  0  0  0  0  0  0  0  0
    7.8670   -6.1823    0.0000 C   0  0  0  0  0  0  0  0  0  0  0  0
    3.3179   -4.2881    0.0000 C   0  0  0  0  0  0  0  0  0  0  0  0
    9.9883    1.3062    0.0000 C   0  0  0  0  0  0  0  0  0  0  0  0
   10.9923   -5.1583    0.0000 C   0  0  0  0  0  0  0  0  0  0  0  0
   11.2323   -1.3772    0.0000 C   0  0  0  0  0  0  0  0  0  0  0  0
    9.4641   -2.9646    0.0000 C   0  0  0  0  0  0  0  0  0  0  0  0
    5.9510    3.4180    0.0000 C   0  0  0  0  0  0  0  0  0  0  0  0
    3.8056   -5.1350    0.0000 C   0  0  0  0  0  0  0  0  0  0  0  0
    9.9883    3.3755    0.0000 C   0  0  0  0  0  0  0  0  0  0  0  0
    8.4342    4.8516    0.0000 C   0  0  0  0  0  0  0  0  0  0  0  0
   11.1764    0.3301    0.0000 C   0  0  0  0  0  0  0  0  0  0  0  0
   11.6790   -0.5080    0.0000 C   0  0  0  0  0  0  0  0  0  0  0  0
   10.8944    1.8200    0.0000 C   0  0  0  0  0  0  0  0  0  0  0  0
   10.8944    2.8617    0.0000 C   0  0  0  0  0  0  0  0  0  0  0  0
    5.8478    4.9392    0.0000 C   0  0  0  0  0  0  0  0  0  0  0  0
    7.1683    5.7016    0.0000 C   0  0  0  0  0  0  0  0  0  0  0  0
    6.7207   -0.2846    0.0000 H   0  0  0  0  0  0  0  0  0  0  0  0
    7.0356    1.0350    0.0000 H   0  0  0  0  0  0  0  0  0  0  0  0
    5.0058   -0.3470    0.0000 H   0  0  0  0  0  0  0  0  0  0  0  0
    5.0957    2.1550    0.0000 H   0  0  0  0  0  0  0  0  0  0  0  0
    4.1804    1.0292    0.0000 H   0  0  0  0  0  0  0  0  0  0  0  0
    4.6055   -0.5904    0.0000 H   0  0  0  0  0  0  0  0  0  0  0  0
    5.4659   -1.4074    0.0000 H   0  0  0  0  0  0  0  0  0  0  0  0
    3.3196    1.5402    0.0000 H   0  0  0  0  0  0  0  0  0  0  0  0
    3.4449   -2.9053    0.0000 H   0  0  0  0  0  0  0  0  0  0  0  0
    9.9066    0.8921    0.0000 H   0  0  0  0  0  0  0  0  0  0  0  0
    9.9811    0.6862    0.0000 H   0  0  0  0  0  0  0  0  0  0  0  0
    5.4483    3.0551    0.0000 H   0  0  0  0  0  0  0  0  0  0  0  0
    4.9026   -6.5783    0.0000 H   0  0  0  0  0  0  0  0  0  0  0  0
    5.9070   -2.8199    0.0000 H   0  0  0  0  0  0  0  0  0  0  0  0
   12.8011   -3.9596    0.0000 H   0  0  0  0  0  0  0  0  0  0  0  0
    6.9804   -2.3832    0.0000 H   0  0  0  0  0  0  0  0  0  0  0  0
   11.5495   -6.4597    0.0000 H   0  0  0  0  0  0  0  0  0  0  0  0
    2.0000   -3.7709    0.0000 H   0  0  0  0  0  0  0  0  0  0  0  0
   12.4061   -2.1686    0.0000 H   0  0  0  0  0  0  0  0  0  0  0  0
    2.6708   -5.9816    0.0000 H   0  0  0  0  0  0  0  0  0  0  0  0
   10.5101    4.6916    0.0000 H   0  0  0  0  0  0  0  0  0  0  0  0
    9.4093    5.8781    0.0000 H   0  0  0  0  0  0  0  0  0  0  0  0
   12.5249    0.7614    0.0000 H   0  0  0  0  0  0  0  0  0  0  0  0
   12.9708    0.0715    0.0000 H   0  0  0  0  0  0  0  0  0  0  0  0
   12.2789    2.1160    0.0000 H   0  0  0  0  0  0  0  0  0  0  0  0
   12.2966    3.0571    0.0000 H   0  0  0  0  0  0  0  0  0  0  0  0
    4.9444    6.0293    0.0000 H   0  0  0  0  0  0  0  0  0  0  0  0
    6.6760    7.0290    0.0000 H   0  0  0  0  0  0  0  0  0  0  0  0
  1 32  1  0  0  0  0
  1 34  1  0  0  0  0
  2 30  1  0  0  0  0
  2 38  1  0  0  0  0
  3 31  1  0  0  0  0
  3 39  1  0  0  0  0
  4 33  1  0  0  0  0
  4 40  1  0  0  0  0
 34  5  1  6  0  0  0
  5 85  1  0  0  0  0
  6 36  2  0  0  0  0
  7 56  1  0  0  0  0
  7 62  1  0  0  0  0
  8 55  1  0  0  0  0
  8 67  1  0  0  0  0
  9 38  2  0  0  0  0
 10 39  2  0  0  0  0
 11 40  2  0  0  0  0
 12 57  1  0  0  0  0
 12 90  1  0  0  0  0
 13 58  1  0  0  0  0
 13 91  1  0  0  0  0
 14 59  1  0  0  0  0
 14 92  1  0  0  0  0
 15 60  1  0  0  0  0
 15 93  1  0  0  0  0
 16 63  1  0  0  0  0
 16 95  1  0  0  0  0
 17 65  1  0  0  0  0
 17 94  1  0  0  0  0
 18 66  1  0  0  0  0
 18 96  1  0  0  0  0
 19 69  1  0  0  0  0
 19 97  1  0  0  0  0
 20 70  1  0  0  0  0
 20 98  1  0  0  0  0
 21 71  1  0  0  0  0
 21 99  1  0  0  0  0
 22 62  2  0  0  0  0
 23 67  2  0  0  0  0
 24 72  1  0  0  0  0
 24100  1  0  0  0  0
 25 73  1  0  0  0  0
 25101  1  0  0  0  0
 26 74  1  0  0  0  0
 26102  1  0  0  0  0
 27 75  1  0  0  0  0
 27103  1  0  0  0  0
 28 76  1  0  0  0  0
 28104  1  0  0  0  0
 29 77  1  0  0  0  0
 29105  1  0  0  0  0
 30 31  1  0  0  0  0
 30 32  1  0  0  0  0
 30 78  1  0  0  0  0
 31 33  1  0  0  0  0
 31 79  1  0  0  0  0
 32 35  1  0  0  0  0
 32 80  1  0  0  0  0
 33 34  1  0  0  0  0
 33 81  1  0  0  0  0
 34 82  1  0  0  0  0
 35 36  1  0  0  0  0
 35 83  1  0  0  0  0
 35 84  1  0  0  0  0
 36 37  1  0  0  0  0
 37 41  1  0  0  0  0
 37 54  2  0  0  0  0
 38 42  1  0  0  0  0
 39 44  1  0  0  0  0
 40 46  1  0  0  0  0
 41 43  1  0  0  0  0
 41 57  2  0  0  0  0
 42 49  1  0  0  0  0
 42 61  2  0  0  0  0
 43 47  1  0  0  0  0
 43 58  2  0  0  0  0
 44 52  1  0  0  0  0
 44 64  2  0  0  0  0
 45 47  2  0  0  0  0
 45 48  1  0  0  0  0
 45 55  1  0  0  0  0
 46 53  1  0  0  0  0
 46 68  2  0  0  0  0
 47 62  1  0  0  0  0
 48 51  2  0  0  0  0
 48 56  1  0  0  0  0
 49 50  1  0  0  0  0
 49 66  2  0  0  0  0
 50 51  1  0  0  0  0
 50 59  2  0  0  0  0
 51 67  1  0  0  0  0
 52 53  1  0  0  0  0
 52 70  2  0  0  0  0
 53 71  2  0  0  0  0
 54 63  1  0  0  0  0
 54 86  1  0  0  0  0
 55 60  2  0  0  0  0
 56 65  2  0  0  0  0
 57 69  1  0  0  0  0
 58 60  1  0  0  0  0
 59 65  1  0  0  0  0
 61 72  1  0  0  0  0
 61 87  1  0  0  0  0
 63 69  2  0  0  0  0
 64 74  1  0  0  0  0
 64 88  1  0  0  0  0
 66 73  1  0  0  0  0
 68 76  1  0  0  0  0
 68 89  1  0  0  0  0
 70 75  1  0  0  0  0
 71 77  1  0  0  0  0
 72 73  2  0  0  0  0
 74 75  2  0  0  0  0
 76 77  2  0  0  0  0
M  END
> <PUBCHEM_COMPOUND_CID>
44460933

> <PUBCHEM_COMPOUND_CANONICALIZED>
1

> <PUBCHEM_CACTVS_COMPLEXITY>
2360

> <PUBCHEM_CACTVS_HBOND_ACCEPTOR>
29

> <PUBCHEM_CACTVS_HBOND_DONOR>
17

> <PUBCHEM_CACTVS_ROTATABLE_BOND>
0

> <PUBCHEM_CACTVS_SUBSKEYS>
AAADceB8PgAAAAAAAAAAAAAAAAAAAAAAAAA0aNGDAAAAAACRVAAAGgAACAAADBSwmAMwDoAABgCIAqDSCAACCAAkIAAAiAEGiMgdNzaGNBqCeyOl4BUPuYfK7PzOoAADCAAYQABAAAYQADCAAAAAAAAAAA==

> <PUBCHEM_IUPAC_OPENEYE_NAME>
(53S)-6,7,8,11,12,23,24,27,28,29,40,41,42,45,46,47,53-heptadecahydroxy-14,21,33,36,51,54-hexaoxaundecacyclo[32.20.0.04,9.010,19.013,18.016,25.017,22.026,31.035,52.038,43.044,49]tetrapentaconta-4,6,8,10,12,16,18,22,24,26,28,30,38,40,42,44,46,48-octadecaene-3,15,20,32,37,50-hexone

> <PUBCHEM_IUPAC_CAS_NAME>
(53S)-6,7,8,11,12,23,24,27,28,29,40,41,42,45,46,47,53-heptadecahydroxy-14,21,33,36,51,54-hexaoxaundecacyclo[32.20.0.04,9.010,19.013,18.016,25.017,22.026,31.035,52.038,43.044,49]tetrapentaconta-4,6,8,10,12,16,18,22,24,26,28,30,38,40,42,44,46,48-octadecaene-3,15,20,32,37,50-hexone

> <PUBCHEM_IUPAC_NAME_MARKUP>
(53<I>S</I>)-6,7,8,11,12,23,24,27,28,29,40,41,42,45,46,47,53-heptadecahydroxy-14,21,33,36,51,54-hexaoxaundecacyclo[32.20.0.0<SUP>4,9</SUP>.0<SUP>10,19</SUP>.0<SUP>13,18</SUP>.0<SUP>16,25</SUP>.0<SUP>17,22</SUP>.0<SUP>26,31</SUP>.0<SUP>35,52</SUP>.0<SUP>38,43</SUP>.0<SUP>44,49</SUP>]tetrapentaconta-4,6,8,10,12,16,18,22,24,26,28,30,38,40,42,44,46,48-octadecaene-3,15,20,32,37,50-hexone

> <PUBCHEM_IUPAC_NAME>
(53S)-6,7,8,11,12,23,24,27,28,29,40,41,42,45,46,47,53-heptadecahydroxy-14,21,33,36,51,54-hexaoxaundecacyclo[32.20.0.04,9.010,19.013,18.016,25.017,22.026,31.035,52.038,43.044,49]tetrapentaconta-4,6,8,10,12,16,18,22,24,26,28,30,38,40,42,44,46,48-octadecaene-3,15,20,32,37,50-hexone

> <PUBCHEM_IUPAC_SYSTEMATIC_NAME>
(53S)-6,7,8,11,12,23,24,27,28,29,40,41,42,45,46,47,53-heptadecakis(oxidanyl)-14,21,33,36,51,54-hexaoxaundecacyclo[32.20.0.04,9.010,19.013,18.016,25.017,22.026,31.035,52.038,43.044,49]tetrapentaconta-4,6,8,10,12,16,18,22,24,26,28,30,38,40,42,44,46,48-octadecaene-3,15,20,32,37,50-hexone

> <PUBCHEM_IUPAC_TRADITIONAL_NAME>
(53S)-6,7,8,11,12,23,24,27,28,29,40,41,42,45,46,47,53-heptadecahydroxy-14,21,33,36,51,54-hexaoxaundecacyclo[32.20.0.04,9.010,19.013,18.016,25.017,22.026,31.035,52.038,43.044,49]tetrapentaconta-4,6,8,10,12,16,18,22,24,26,28,30,38,40,42,44,46,48-octadecaene-3,15,20,32,37,50-triquinone

> <PUBCHEM_IUPAC_INCHI>
InChI=1S/C48H28O29/c49-10-5-15-38(41-42(48(71)72-15)77-45(68)8-3-13(52)28(56)32(60)18(8)17-7(44(67)76-41)2-12(51)27(55)31(17)59)73-43(66)9-4-14(53)29(57)33(61)19(9)21-25-23-22-24(46(69)74-40(23)37(65)35(21)63)20(34(62)36(64)39(22)75-47(25)70)16-6(10)1-11(50)26(54)30(16)58/h1-4,15,38,41-42,48,50-65,71H,5H2/t15?,38?,41?,42?,48-/m0/s1

> <PUBCHEM_IUPAC_INCHIKEY>
QFGKTHQDZTUCHS-UOFKNCNMSA-N

> <PUBCHEM_XLOGP3_AA>
1.6

> <PUBCHEM_EXACT_MASS>
1068.07162485

> <PUBCHEM_MOLECULAR_FORMULA>
C48H28O29

> <PUBCHEM_MOLECULAR_WEIGHT>
1068.7

> <PUBCHEM_SMILES>
C1C2C(C3C([C@H](O2)O)OC(=O)C4=CC(=C(C(=C4C5=C(C(=C(C=C5C(=O)O3)O)O)O)O)O)O)OC(=O)C6=CC(=C(C(=C6C7=C(C(=C8C9=C7C(=O)OC2=C(C(=C(C3=C(C(=C(C=C3C1=O)O)O)O)C(=C92)C(=O)O8)O)O)O)O)O)O)O

> <PUBCHEM_OPENEYE_CAN_SMILES>
C1C2C(C3C(C(O2)O)OC(=O)C4=CC(=C(C(=C4C5=C(C(=C(C=C5C(=O)O3)O)O)O)O)O)O)OC(=O)C6=CC(=C(C(=C6C7=C(C(=C8C9=C7C(=O)OC2=C(C(=C(C3=C(C(=C(C=C3C1=O)O)O)O)C(=C92)C(=O)O8)O)O)O)O)O)O)O

> <PUBCHEM_OPENEYE_ISO_SMILES>
C1C2C(C3C([C@H](O2)O)OC(=O)C4=CC(=C(C(=C4C5=C(C(=C(C=C5C(=O)O3)O)O)O)O)O)O)OC(=O)C6=CC(=C(C(=C6C7=C(C(=C8C9=C7C(=O)OC2=C(C(=C(C3=C(C(=C(C=C3C1=O)O)O)O)C(=C92)C(=O)O8)O)O)O)O)O)O)O

> <PUBCHEM_CACTVS_TPSA>
502

> <PUBCHEM_MONOISOTOPIC_WEIGHT>
1068.07162485

> <PUBCHEM_TOTAL_CHARGE>
0

> <PUBCHEM_HEAVY_ATOM_COUNT>
77

> <PUBCHEM_ATOM_DEF_STEREO_COUNT>
1

> <PUBCHEM_ATOM_UDEF_STEREO_COUNT>
4

> <PUBCHEM_BOND_DEF_STEREO_COUNT>
0

> <PUBCHEM_BOND_UDEF_STEREO_COUNT>
0

> <PUBCHEM_ISOTOPIC_ATOM_COUNT>
0

> <PUBCHEM_COMPONENT_COUNT>
1

> <PUBCHEM_CACTVS_TAUTO_COUNT>
-1

> <PUBCHEM_COORDINATE_TYPE>
1
5
255

> <PUBCHEM_BONDANNOTATIONS>
30  2  3
31  3  3
32  35  3
37  41  8
37  54  8
33  4  3
41  57  8
42  49  8
42  61  8
43  47  8
43  58  8
44  52  8
44  64  8
45  47  8
45  48  8
45  55  8
46  53  8
46  68  8
47  62  8
48  51  8
48  56  8
49  66  8
34  5  6
50  51  8
50  59  8
51  67  8
52  70  8
53  71  8
54  63  8
55  60  8
56  65  8
57  69  8
58  60  8
59  65  8
61  72  8
63  69  8
64  74  8
66  73  8
68  76  8
7  56  8
7  62  8
70  75  8
71  77  8
72  73  8
74  75  8
76  77  8
8  55  8
8  67  8

$$$$
