71455860
  -OEChem-03202504502D

 53 56  0     0  0  0  0  0  0999 V2000
    3.3752    0.7695    0.0000 O   0  0  0  0  0  0  0  0  0  0  0  0
    5.7071    1.3944    0.0000 O   0  0  0  0  0  0  0  0  0  0  0  0
    4.0000   -1.5624    0.0000 N   0  0  0  0  0  0  0  0  0  0  0  0
    6.3320   -0.9376    0.0000 N   0  0  0  0  0  0  0  0  0  0  0  0
    8.0640   -0.9376    0.0000 N   0  0  0  0  0  0  0  0  0  0  0  0
    9.7960   -0.9376    0.0000 N   0  0  0  0  0  0  0  0  0  0  0  0
    8.9300    0.5624    0.0000 N   0  0  0  0  0  0  0  0  0  0  0  0
   14.9922    2.0624    0.0000 N   0  0  0  0  0  0  0  0  0  0  0  0
    3.0000   -1.5624    0.0000 C   0  0  0  0  0  0  0  0  0  0  0  0
    4.5000   -0.6964    0.0000 C   0  0  0  0  0  0  0  0  0  0  0  0
    2.0000   -1.5624    0.0000 C   0  0  0  0  0  0  0  0  0  0  0  0
    3.0000   -2.5624    0.0000 C   0  0  0  0  0  0  0  0  0  0  0  0
    3.0000   -0.5624    0.0000 C   0  0  0  0  0  0  0  0  0  0  0  0
    5.4659   -0.4376    0.0000 C   0  0  0  0  0  0  0  0  0  0  0  0
    4.2412    0.2695    0.0000 C   0  0  0  0  0  0  0  0  0  0  0  0
    5.2071    0.5283    0.0000 C   0  0  0  0  0  0  0  0  0  0  0  0
    7.1980   -0.4376    0.0000 C   0  0  0  0  0  0  0  0  0  0  0  0
    7.1980    0.5624    0.0000 C   0  0  0  0  0  0  0  0  0  0  0  0
    8.9300   -0.4376    0.0000 C   0  0  0  0  0  0  0  0  0  0  0  0
   10.6621   -0.4376    0.0000 C   0  0  0  0  0  0  0  0  0  0  0  0
   12.3941    0.5624    0.0000 C   0  0  0  0  0  0  0  0  0  0  0  0
    8.0640    1.0624    0.0000 C   0  0  0  0  0  0  0  0  0  0  0  0
   10.6621    0.5624    0.0000 C   0  0  0  0  0  0  0  0  0  0  0  0
   11.5281   -0.9376    0.0000 C   0  0  0  0  0  0  0  0  0  0  0  0
   11.5281    1.0624    0.0000 C   0  0  0  0  0  0  0  0  0  0  0  0
   12.3941   -0.4376    0.0000 C   0  0  0  0  0  0  0  0  0  0  0  0
   13.2602    1.0624    0.0000 C   0  0  0  0  0  0  0  0  0  0  0  0
   13.2602    2.0624    0.0000 C   0  0  0  0  0  0  0  0  0  0  0  0
   14.1262    0.5624    0.0000 C   0  0  0  0  0  0  0  0  0  0  0  0
   14.1262    2.5624    0.0000 C   0  0  0  0  0  0  0  0  0  0  0  0
   14.9922    1.0624    0.0000 C   0  0  0  0  0  0  0  0  0  0  0  0
    4.3100   -2.0994    0.0000 H   0  0  0  0  0  0  0  0  0  0  0  0
    2.0000   -0.9424    0.0000 H   0  0  0  0  0  0  0  0  0  0  0  0
    1.3800   -1.5624    0.0000 H   0  0  0  0  0  0  0  0  0  0  0  0
    2.0000   -2.1824    0.0000 H   0  0  0  0  0  0  0  0  0  0  0  0
    2.3800   -2.5624    0.0000 H   0  0  0  0  0  0  0  0  0  0  0  0
    3.0000   -3.1824    0.0000 H   0  0  0  0  0  0  0  0  0  0  0  0
    3.6200   -2.5624    0.0000 H   0  0  0  0  0  0  0  0  0  0  0  0
    3.6200   -0.5624    0.0000 H   0  0  0  0  0  0  0  0  0  0  0  0
    3.0000    0.0576    0.0000 H   0  0  0  0  0  0  0  0  0  0  0  0
    2.3800   -0.5624    0.0000 H   0  0  0  0  0  0  0  0  0  0  0  0
    6.3320   -1.5576    0.0000 H   0  0  0  0  0  0  0  0  0  0  0  0
    6.6610    0.8724    0.0000 H   0  0  0  0  0  0  0  0  0  0  0  0
    9.7960   -1.5576    0.0000 H   0  0  0  0  0  0  0  0  0  0  0  0
    8.0640    1.6824    0.0000 H   0  0  0  0  0  0  0  0  0  0  0  0
   10.1251    0.8724    0.0000 H   0  0  0  0  0  0  0  0  0  0  0  0
   11.5281   -1.5576    0.0000 H   0  0  0  0  0  0  0  0  0  0  0  0
   11.5281    1.6824    0.0000 H   0  0  0  0  0  0  0  0  0  0  0  0
   12.9311   -0.7476    0.0000 H   0  0  0  0  0  0  0  0  0  0  0  0
   12.7232    2.3724    0.0000 H   0  0  0  0  0  0  0  0  0  0  0  0
   14.1262   -0.0576    0.0000 H   0  0  0  0  0  0  0  0  0  0  0  0
   14.1262    3.1824    0.0000 H   0  0  0  0  0  0  0  0  0  0  0  0
   15.5291    0.7524    0.0000 H   0  0  0  0  0  0  0  0  0  0  0  0
  1 15  2  0  0  0  0
  2 16  2  0  0  0  0
  3  9  1  0  0  0  0
  3 10  1  0  0  0  0
  3 32  1  0  0  0  0
  4 14  1  0  0  0  0
  4 17  1  0  0  0  0
  4 42  1  0  0  0  0
  5 17  2  0  0  0  0
  5 19  1  0  0  0  0
  6 19  1  0  0  0  0
  6 20  1  0  0  0  0
  6 44  1  0  0  0  0
  7 19  2  0  0  0  0
  7 22  1  0  0  0  0
  8 30  2  0  0  0  0
  8 31  1  0  0  0  0
  9 11  1  0  0  0  0
  9 12  1  0  0  0  0
  9 13  1  0  0  0  0
 10 14  2  0  0  0  0
 10 15  1  0  0  0  0
 11 33  1  0  0  0  0
 11 34  1  0  0  0  0
 11 35  1  0  0  0  0
 12 36  1  0  0  0  0
 12 37  1  0  0  0  0
 12 38  1  0  0  0  0
 13 39  1  0  0  0  0
 13 40  1  0  0  0  0
 13 41  1  0  0  0  0
 14 16  1  0  0  0  0
 15 16  1  0  0  0  0
 17 18  1  0  0  0  0
 18 22  2  0  0  0  0
 18 43  1  0  0  0  0
 20 23  2  0  0  0  0
 20 24  1  0  0  0  0
 21 25  2  0  0  0  0
 21 26  1  0  0  0  0
 21 27  1  0  0  0  0
 22 45  1  0  0  0  0
 23 25  1  0  0  0  0
 23 46  1  0  0  0  0
 24 26  2  0  0  0  0
 24 47  1  0  0  0  0
 25 48  1  0  0  0  0
 26 49  1  0  0  0  0
 27 28  2  0  0  0  0
 27 29  1  0  0  0  0
 28 30  1  0  0  0  0
 28 50  1  0  0  0  0
 29 31  2  0  0  0  0
 29 51  1  0  0  0  0
 30 52  1  0  0  0  0
 31 53  1  0  0  0  0
M  END
> <PUBCHEM_COMPOUND_CID>
71455860

> <PUBCHEM_COMPOUND_CANONICALIZED>
1

> <PUBCHEM_CACTVS_COMPLEXITY>
701

> <PUBCHEM_CACTVS_HBOND_ACCEPTOR>
8

> <PUBCHEM_CACTVS_HBOND_DONOR>
3

> <PUBCHEM_CACTVS_ROTATABLE_BOND>
7

> <PUBCHEM_CACTVS_SUBSKEYS>
AAADceB7sAAAAAAAAAAAAAAAAABAAAAAAAA8WIAAAAAAAAAB8AAAHgAQAAAADIzBmgQ/8JbIEACoArZ3ZACCgCkxAqAJ2CG4ZNiIKOrA2fGEJAhokALIyWcQgMAOiAAAAAAAAAAQAAAAAAAAAAAAAAAAAA==

> <PUBCHEM_IUPAC_OPENEYE_NAME>
3-(tert-butylamino)-4-[[2-[4-(4-pyridyl)anilino]pyrimidin-4-yl]amino]cyclobut-3-ene-1,2-dione

> <PUBCHEM_IUPAC_CAS_NAME>
3-(tert-butylamino)-4-[[2-(4-pyridin-4-ylanilino)-4-pyrimidinyl]amino]cyclobut-3-ene-1,2-dione

> <PUBCHEM_IUPAC_NAME_MARKUP>
3-(<I>tert</I>-butylamino)-4-[[2-(4-pyridin-4-ylanilino)pyrimidin-4-yl]amino]cyclobut-3-ene-1,2-dione

> <PUBCHEM_IUPAC_NAME>
3-(tert-butylamino)-4-[[2-(4-pyridin-4-ylanilino)pyrimidin-4-yl]amino]cyclobut-3-ene-1,2-dione

> <PUBCHEM_IUPAC_SYSTEMATIC_NAME>
3-(tert-butylamino)-4-[[2-[(4-pyridin-4-ylphenyl)amino]pyrimidin-4-yl]amino]cyclobut-3-ene-1,2-dione

> <PUBCHEM_IUPAC_TRADITIONAL_NAME>
3-(tert-butylamino)-4-[[2-[4-(4-pyridyl)anilino]pyrimidin-4-yl]amino]cyclobut-3-ene-1,2-quinone

> <PUBCHEM_IUPAC_INCHI>
InChI=1S/C23H22N6O2/c1-23(2,3)29-19-18(20(30)21(19)31)27-17-10-13-25-22(28-17)26-16-6-4-14(5-7-16)15-8-11-24-12-9-15/h4-13,29H,1-3H3,(H2,25,26,27,28)

> <PUBCHEM_IUPAC_INCHIKEY>
NDIUYMHNCUTVGE-UHFFFAOYSA-N

> <PUBCHEM_XLOGP3_AA>
3.5

> <PUBCHEM_EXACT_MASS>
414.18042397

> <PUBCHEM_MOLECULAR_FORMULA>
C23H22N6O2

> <PUBCHEM_MOLECULAR_WEIGHT>
414.5

> <PUBCHEM_SMILES>
CC(C)(C)NC1=C(C(=O)C1=O)NC2=NC(=NC=C2)NC3=CC=C(C=C3)C4=CC=NC=C4

> <PUBCHEM_OPENEYE_CAN_SMILES>
CC(C)(C)NC1=C(C(=O)C1=O)NC2=NC(=NC=C2)NC3=CC=C(C=C3)C4=CC=NC=C4

> <PUBCHEM_OPENEYE_ISO_SMILES>
CC(C)(C)NC1=C(C(=O)C1=O)NC2=NC(=NC=C2)NC3=CC=C(C=C3)C4=CC=NC=C4

> <PUBCHEM_CACTVS_TPSA>
109

> <PUBCHEM_MONOISOTOPIC_WEIGHT>
414.18042397

> <PUBCHEM_TOTAL_CHARGE>
0

> <PUBCHEM_HEAVY_ATOM_COUNT>
31

> <PUBCHEM_ATOM_DEF_STEREO_COUNT>
0

> <PUBCHEM_ATOM_UDEF_STEREO_COUNT>
0

> <PUBCHEM_BOND_DEF_STEREO_COUNT>
0

> <PUBCHEM_BOND_UDEF_STEREO_COUNT>
0

> <PUBCHEM_ISOTOPIC_ATOM_COUNT>
0

> <PUBCHEM_COMPONENT_COUNT>
1

> <PUBCHEM_CACTVS_TAUTO_COUNT>
-1

> <PUBCHEM_COORDINATE_TYPE>
1
5
255

> <PUBCHEM_BONDANNOTATIONS>
10  14  8
10  15  8
14  16  8
15  16  8
17  18  8
18  22  8
20  23  8
20  24  8
21  25  8
21  26  8
23  25  8
24  26  8
27  28  8
27  29  8
28  30  8
29  31  8
5  17  8
5  19  8
7  19  8
7  22  8
8  30  8
8  31  8

$$$$
