135947976
  -OEChem-03192523432D

 39 42  0     0  0  0  0  0  0999 V2000
    8.3452   -0.9193    0.0000 O   0  0  0  0  0  0  0  0  0  0  0  0
    3.7899   -1.0826    0.0000 N   0  0  0  0  0  0  0  0  0  0  0  0
    4.7617   -0.8734    0.0000 N   0  0  0  0  0  0  0  0  0  0  0  0
    2.3107   -0.0177    0.0000 N   0  0  0  0  0  0  0  0  0  0  0  0
    2.6678    1.6772    0.0000 N   0  0  0  0  0  0  0  0  0  0  0  0
    4.3142    2.2152    0.0000 N   0  0  0  0  0  0  0  0  0  0  0  0
    8.3568    2.1500    0.0000 N   0  0  0  0  0  0  0  0  0  0  0  0
    9.2629    0.5945    0.0000 N   0  0  0  0  0  0  0  0  0  0  0  0
    3.3864   -1.9976    0.0000 C   0  0  0  0  0  0  0  0  0  0  0  0
    3.9570    0.5204    0.0000 C   0  0  0  0  0  0  0  0  0  0  0  0
    3.2892   -0.2239    0.0000 C   0  0  0  0  0  0  0  0  0  0  0  0
    4.8648    0.1153    0.0000 C   0  0  0  0  0  0  0  0  0  0  0  0
    5.7308    0.6153    0.0000 C   0  0  0  0  0  0  0  0  0  0  0  0
    3.9769   -2.8046    0.0000 C   0  0  0  0  0  0  0  0  0  0  0  0
    2.3922   -2.1056    0.0000 C   0  0  0  0  0  0  0  0  0  0  0  0
    3.6464    1.4709    0.0000 C   0  0  0  0  0  0  0  0  0  0  0  0
    6.5968    0.1153    0.0000 C   0  0  0  0  0  0  0  0  0  0  0  0
    5.7308    1.6153    0.0000 C   0  0  0  0  0  0  0  0  0  0  0  0
    7.4629    0.6153    0.0000 C   0  0  0  0  0  0  0  0  0  0  0  0
    7.4629    1.6153    0.0000 C   0  0  0  0  0  0  0  0  0  0  0  0
    6.5968    2.1153    0.0000 C   0  0  0  0  0  0  0  0  0  0  0  0
    2.0000    0.9328    0.0000 C   0  0  0  0  0  0  0  0  0  0  0  0
    8.3568    0.0806    0.0000 C   0  0  0  0  0  0  0  0  0  0  0  0
    9.2629    1.6361    0.0000 C   0  0  0  0  0  0  0  0  0  0  0  0
    3.0202   -1.4972    0.0000 H   0  0  0  0  0  0  0  0  0  0  0  0
    3.4766   -3.1707    0.0000 H   0  0  0  0  0  0  0  0  0  0  0  0
    4.3431   -3.3049    0.0000 H   0  0  0  0  0  0  0  0  0  0  0  0
    4.4773   -2.4384    0.0000 H   0  0  0  0  0  0  0  0  0  0  0  0
    2.3253   -1.4892    0.0000 H   0  0  0  0  0  0  0  0  0  0  0  0
    1.7758   -2.1725    0.0000 H   0  0  0  0  0  0  0  0  0  0  0  0
    2.4591   -2.7219    0.0000 H   0  0  0  0  0  0  0  0  0  0  0  0
    6.5968   -0.5047    0.0000 H   0  0  0  0  0  0  0  0  0  0  0  0
    5.1939    1.9253    0.0000 H   0  0  0  0  0  0  0  0  0  0  0  0
    6.5968    2.7353    0.0000 H   0  0  0  0  0  0  0  0  0  0  0  0
    1.3933    1.0607    0.0000 H   0  0  0  0  0  0  0  0  0  0  0  0
    4.1216    2.8046    0.0000 H   0  0  0  0  0  0  0  0  0  0  0  0
    4.9209    2.0874    0.0000 H   0  0  0  0  0  0  0  0  0  0  0  0
    9.7986    0.2824    0.0000 H   0  0  0  0  0  0  0  0  0  0  0  0
    9.7986    1.9482    0.0000 H   0  0  0  0  0  0  0  0  0  0  0  0
  1 23  2  0  0  0  0
  2  3  1  0  0  0  0
  2  9  1  0  0  0  0
  2 11  1  0  0  0  0
  3 12  2  0  0  0  0
  4 11  2  0  0  0  0
  4 22  1  0  0  0  0
  5 16  1  0  0  0  0
  5 22  2  0  0  0  0
  6 16  1  0  0  0  0
  6 36  1  0  0  0  0
  6 37  1  0  0  0  0
  7 20  1  0  0  0  0
  7 24  2  0  0  0  0
  8 23  1  0  0  0  0
  8 24  1  0  0  0  0
  8 38  1  0  0  0  0
  9 14  1  0  0  0  0
  9 15  1  0  0  0  0
  9 25  1  0  0  0  0
 10 11  1  0  0  0  0
 10 12  1  0  0  0  0
 10 16  2  0  0  0  0
 12 13  1  0  0  0  0
 13 17  2  0  0  0  0
 13 18  1  0  0  0  0
 14 26  1  0  0  0  0
 14 27  1  0  0  0  0
 14 28  1  0  0  0  0
 15 29  1  0  0  0  0
 15 30  1  0  0  0  0
 15 31  1  0  0  0  0
 17 19  1  0  0  0  0
 17 32  1  0  0  0  0
 18 21  2  0  0  0  0
 18 33  1  0  0  0  0
 19 20  2  0  0  0  0
 19 23  1  0  0  0  0
 20 21  1  0  0  0  0
 21 34  1  0  0  0  0
 22 35  1  0  0  0  0
 24 39  1  0  0  0  0
M  END
> <PUBCHEM_COMPOUND_CID>
135947976

> <PUBCHEM_COMPOUND_CANONICALIZED>
1

> <PUBCHEM_CACTVS_COMPLEXITY>
525

> <PUBCHEM_CACTVS_HBOND_ACCEPTOR>
6

> <PUBCHEM_CACTVS_HBOND_DONOR>
2

> <PUBCHEM_CACTVS_ROTATABLE_BOND>
2

> <PUBCHEM_CACTVS_SUBSKEYS>
AAADccB7oAAAAAAAAAAAAAAAAAAAAWAAAAA8QIAAAAAAAFiB/AAAHgAYAAAADCjBnwQ38N7IEACqAydzdACShCs1gqAd2KEoZNiIKLrA3dGEpYhoigLIyecYicCeCAACAAACAAAQAAQAAAQAAAAAAAAAAA==

> <PUBCHEM_IUPAC_OPENEYE_NAME>
6-(4-amino-1-isopropyl-pyrazolo[3,4-d]pyrimidin-3-yl)-3H-quinazolin-4-one

> <PUBCHEM_IUPAC_CAS_NAME>
6-(4-amino-1-propan-2-yl-3-pyrazolo[3,4-d]pyrimidinyl)-3H-quinazolin-4-one

> <PUBCHEM_IUPAC_NAME_MARKUP>
6-(4-amino-1-propan-2-ylpyrazolo[3,4-d]pyrimidin-3-yl)-3<I>H</I>-quinazolin-4-one

> <PUBCHEM_IUPAC_NAME>
6-(4-amino-1-propan-2-ylpyrazolo[3,4-d]pyrimidin-3-yl)-3H-quinazolin-4-one

> <PUBCHEM_IUPAC_SYSTEMATIC_NAME>
6-(4-azanyl-1-propan-2-yl-pyrazolo[3,4-d]pyrimidin-3-yl)-3H-quinazolin-4-one

> <PUBCHEM_IUPAC_TRADITIONAL_NAME>
6-(4-amino-1-isopropyl-pyrazolo[3,4-d]pyrimidin-3-yl)-3H-quinazolin-4-one

> <PUBCHEM_IUPAC_INCHI>
InChI=1S/C16H15N7O/c1-8(2)23-15-12(14(17)19-7-20-15)13(22-23)9-3-4-11-10(5-9)16(24)21-6-18-11/h3-8H,1-2H3,(H2,17,19,20)(H,18,21,24)

> <PUBCHEM_IUPAC_INCHIKEY>
QVFCDPRQRUAFKS-UHFFFAOYSA-N

> <PUBCHEM_XLOGP3_AA>
1

> <PUBCHEM_EXACT_MASS>
321.13380813

> <PUBCHEM_MOLECULAR_FORMULA>
C16H15N7O

> <PUBCHEM_MOLECULAR_WEIGHT>
321.34

> <PUBCHEM_SMILES>
CC(C)N1C2=NC=NC(=C2C(=N1)C3=CC4=C(C=C3)N=CNC4=O)N

> <PUBCHEM_OPENEYE_CAN_SMILES>
CC(C)N1C2=NC=NC(=C2C(=N1)C3=CC4=C(C=C3)N=CNC4=O)N

> <PUBCHEM_OPENEYE_ISO_SMILES>
CC(C)N1C2=NC=NC(=C2C(=N1)C3=CC4=C(C=C3)N=CNC4=O)N

> <PUBCHEM_CACTVS_TPSA>
111

> <PUBCHEM_MONOISOTOPIC_WEIGHT>
321.13380813

> <PUBCHEM_TOTAL_CHARGE>
0

> <PUBCHEM_HEAVY_ATOM_COUNT>
24

> <PUBCHEM_ATOM_DEF_STEREO_COUNT>
0

> <PUBCHEM_ATOM_UDEF_STEREO_COUNT>
0

> <PUBCHEM_BOND_DEF_STEREO_COUNT>
0

> <PUBCHEM_BOND_UDEF_STEREO_COUNT>
0

> <PUBCHEM_ISOTOPIC_ATOM_COUNT>
0

> <PUBCHEM_COMPONENT_COUNT>
1

> <PUBCHEM_CACTVS_TAUTO_COUNT>
-1

> <PUBCHEM_COORDINATE_TYPE>
1
5
255

> <PUBCHEM_BONDANNOTATIONS>
10  11  8
10  12  8
10  16  8
13  17  8
13  18  8
17  19  8
18  21  8
19  20  8
19  23  8
2  11  8
2  3  8
20  21  8
3  12  8
4  11  8
4  22  8
5  16  8
5  22  8
7  20  8
7  24  8
8  23  8
8  24  8

$$$$
