44410960
  -OEChem-03202504342D

 56 59  0     1  0  0  0  0  0999 V2000
   12.4084   -1.0474    0.0000 Cl  0  0  0  0  0  0  0  0  0  0  0  0
   10.6881   -0.0274    0.0000 F   0  0  0  0  0  0  0  0  0  0  0  0
    4.5981   -1.4728    0.0000 O   0  0  0  0  0  0  0  0  0  0  0  0
    5.4641    2.0272    0.0000 O   0  0  0  0  0  0  0  0  0  0  0  0
    4.5981    0.5272    0.0000 N   0  0  3  0  0  0  0  0  0  0  0  0
    2.8660    1.5272    0.0000 N   0  0  3  0  0  0  0  0  0  0  0  0
    2.8660   -1.4728    0.0000 N   0  0  0  0  0  0  0  0  0  0  0  0
    8.9561    2.0619    0.0000 N   0  0  0  0  0  0  0  0  0  0  0  0
    8.9446   -1.0074    0.0000 N   0  0  0  0  0  0  0  0  0  0  0  0
    9.8622    0.5064    0.0000 N   0  0  0  0  0  0  0  0  0  0  0  0
    3.7320    0.0272    0.0000 C   0  0  3  0  0  0  0  0  0  0  0  0
    2.8660    0.5272    0.0000 C   0  0  0  0  0  0  0  0  0  0  0  0
    4.5981    1.5272    0.0000 C   0  0  0  0  0  0  0  0  0  0  0  0
    3.7320    2.0272    0.0000 C   0  0  0  0  0  0  0  0  0  0  0  0
    5.4641    0.0272    0.0000 C   0  0  0  0  0  0  0  0  0  0  0  0
    3.7320   -0.9728    0.0000 C   0  0  0  0  0  0  0  0  0  0  0  0
    6.3301    0.5272    0.0000 C   0  0  0  0  0  0  0  0  0  0  0  0
    2.0000    2.0272    0.0000 C   0  0  0  0  0  0  0  0  0  0  0  0
    6.3301    1.5272    0.0000 C   0  0  0  0  0  0  0  0  0  0  0  0
    7.1962    0.0272    0.0000 C   0  0  0  0  0  0  0  0  0  0  0  0
    8.0622    0.5272    0.0000 C   0  0  0  0  0  0  0  0  0  0  0  0
    7.1962    2.0272    0.0000 C   0  0  0  0  0  0  0  0  0  0  0  0
    8.0622    1.5272    0.0000 C   0  0  0  0  0  0  0  0  0  0  0  0
    8.9561   -0.0074    0.0000 C   0  0  0  0  0  0  0  0  0  0  0  0
    5.4641    3.0272    0.0000 C   0  0  0  0  0  0  0  0  0  0  0  0
    9.8622    1.5481    0.0000 C   0  0  0  0  0  0  0  0  0  0  0  0
    9.8047   -1.5173    0.0000 C   0  0  0  0  0  0  0  0  0  0  0  0
   10.6765   -1.0274    0.0000 C   0  0  0  0  0  0  0  0  0  0  0  0
    9.7932   -2.5173    0.0000 C   0  0  0  0  0  0  0  0  0  0  0  0
   11.5367   -1.5374    0.0000 C   0  0  0  0  0  0  0  0  0  0  0  0
   10.6534   -3.0272    0.0000 C   0  0  0  0  0  0  0  0  0  0  0  0
   11.5251   -2.5373    0.0000 C   0  0  0  0  0  0  0  0  0  0  0  0
    4.2690   -0.2828    0.0000 H   0  0  0  0  0  0  0  0  0  0  0  0
    2.2554    0.6349    0.0000 H   0  0  0  0  0  0  0  0  0  0  0  0
    2.6540   -0.0554    0.0000 H   0  0  0  0  0  0  0  0  0  0  0  0
    5.2087    1.4196    0.0000 H   0  0  0  0  0  0  0  0  0  0  0  0
    4.8101    2.1098    0.0000 H   0  0  0  0  0  0  0  0  0  0  0  0
    4.1306    2.5022    0.0000 H   0  0  0  0  0  0  0  0  0  0  0  0
    3.3335    2.5022    0.0000 H   0  0  0  0  0  0  0  0  0  0  0  0
    5.0656   -0.4477    0.0000 H   0  0  0  0  0  0  0  0  0  0  0  0
    5.8626   -0.4477    0.0000 H   0  0  0  0  0  0  0  0  0  0  0  0
    2.3100    2.5642    0.0000 H   0  0  0  0  0  0  0  0  0  0  0  0
    1.4631    2.3372    0.0000 H   0  0  0  0  0  0  0  0  0  0  0  0
    1.6900    1.4903    0.0000 H   0  0  0  0  0  0  0  0  0  0  0  0
    7.1962   -0.5928    0.0000 H   0  0  0  0  0  0  0  0  0  0  0  0
    2.3291   -1.1628    0.0000 H   0  0  0  0  0  0  0  0  0  0  0  0
    2.8660   -2.0928    0.0000 H   0  0  0  0  0  0  0  0  0  0  0  0
    7.1962    2.6472    0.0000 H   0  0  0  0  0  0  0  0  0  0  0  0
    8.4041   -1.3111    0.0000 H   0  0  0  0  0  0  0  0  0  0  0  0
    6.0841    3.0272    0.0000 H   0  0  0  0  0  0  0  0  0  0  0  0
    5.4641    3.6472    0.0000 H   0  0  0  0  0  0  0  0  0  0  0  0
    4.8441    3.0272    0.0000 H   0  0  0  0  0  0  0  0  0  0  0  0
   10.3979    1.8601    0.0000 H   0  0  0  0  0  0  0  0  0  0  0  0
    9.2527   -2.8210    0.0000 H   0  0  0  0  0  0  0  0  0  0  0  0
   10.6462   -3.6472    0.0000 H   0  0  0  0  0  0  0  0  0  0  0  0
   12.0584   -2.8535    0.0000 H   0  0  0  0  0  0  0  0  0  0  0  0
  1 30  1  0  0  0  0
  2 28  1  0  0  0  0
  3 16  2  0  0  0  0
  4 19  1  0  0  0  0
  4 25  1  0  0  0  0
  5 11  1  0  0  0  0
  5 13  1  0  0  0  0
  5 15  1  0  0  0  0
  6 12  1  0  0  0  0
  6 14  1  0  0  0  0
  6 18  1  0  0  0  0
  7 16  1  0  0  0  0
  7 46  1  0  0  0  0
  7 47  1  0  0  0  0
  8 23  1  0  0  0  0
  8 26  2  0  0  0  0
  9 24  1  0  0  0  0
  9 27  1  0  0  0  0
  9 49  1  0  0  0  0
 10 24  2  0  0  0  0
 10 26  1  0  0  0  0
 11 12  1  0  0  0  0
 11 16  1  0  0  0  0
 11 33  1  0  0  0  0
 12 34  1  0  0  0  0
 12 35  1  0  0  0  0
 13 14  1  0  0  0  0
 13 36  1  0  0  0  0
 13 37  1  0  0  0  0
 14 38  1  0  0  0  0
 14 39  1  0  0  0  0
 15 17  1  0  0  0  0
 15 40  1  0  0  0  0
 15 41  1  0  0  0  0
 17 19  1  0  0  0  0
 17 20  2  0  0  0  0
 18 42  1  0  0  0  0
 18 43  1  0  0  0  0
 18 44  1  0  0  0  0
 19 22  2  0  0  0  0
 20 21  1  0  0  0  0
 20 45  1  0  0  0  0
 21 23  2  0  0  0  0
 21 24  1  0  0  0  0
 22 23  1  0  0  0  0
 22 48  1  0  0  0  0
 25 50  1  0  0  0  0
 25 51  1  0  0  0  0
 25 52  1  0  0  0  0
 26 53  1  0  0  0  0
 27 28  2  0  0  0  0
 27 29  1  0  0  0  0
 28 30  1  0  0  0  0
 29 31  2  0  0  0  0
 29 54  1  0  0  0  0
 30 32  2  0  0  0  0
 31 32  1  0  0  0  0
 31 55  1  0  0  0  0
 32 56  1  0  0  0  0
M  END
> <PUBCHEM_COMPOUND_CID>
44410960

> <PUBCHEM_COMPOUND_CANONICALIZED>
1

> <PUBCHEM_CACTVS_COMPLEXITY>
648

> <PUBCHEM_CACTVS_HBOND_ACCEPTOR>
8

> <PUBCHEM_CACTVS_HBOND_DONOR>
2

> <PUBCHEM_CACTVS_ROTATABLE_BOND>
6

> <PUBCHEM_CACTVS_SUBSKEYS>
AAADceB7sQAEAAAAAAAAAAAAAAAAAAAAAAA8eIEAAAAAAACx9AAAHwIQAAAADC7Bni439vfIFACoAydzdACCiCkxJ6AJ2CG+bpiMburF+/uUNChu0BvI6CeQ0GMOKAACAgIKAABQAAQEBBQAAAAAAAAAAA==

> <PUBCHEM_IUPAC_OPENEYE_NAME>
1-[[4-(3-chloro-2-fluoro-anilino)-7-methoxy-quinazolin-6-yl]methyl]-4-methyl-piperazine-2-carboxamide

> <PUBCHEM_IUPAC_CAS_NAME>
1-[[4-(3-chloro-2-fluoroanilino)-7-methoxy-6-quinazolinyl]methyl]-4-methyl-2-piperazinecarboxamide

> <PUBCHEM_IUPAC_NAME_MARKUP>
1-[[4-(3-chloro-2-fluoroanilino)-7-methoxyquinazolin-6-yl]methyl]-4-methylpiperazine-2-carboxamide

> <PUBCHEM_IUPAC_NAME>
1-[[4-(3-chloro-2-fluoroanilino)-7-methoxyquinazolin-6-yl]methyl]-4-methylpiperazine-2-carboxamide

> <PUBCHEM_IUPAC_SYSTEMATIC_NAME>
1-[[4-[(3-chloranyl-2-fluoranyl-phenyl)amino]-7-methoxy-quinazolin-6-yl]methyl]-4-methyl-piperazine-2-carboxamide

> <PUBCHEM_IUPAC_TRADITIONAL_NAME>
1-[[4-(3-chloro-2-fluoro-anilino)-7-methoxy-quinazolin-6-yl]methyl]-4-methyl-piperazine-2-carboxamide

> <PUBCHEM_IUPAC_INCHI>
InChI=1S/C22H24ClFN6O2/c1-29-6-7-30(18(11-29)21(25)31)10-13-8-14-17(9-19(13)32-2)26-12-27-22(14)28-16-5-3-4-15(23)20(16)24/h3-5,8-9,12,18H,6-7,10-11H2,1-2H3,(H2,25,31)(H,26,27,28)

> <PUBCHEM_IUPAC_INCHIKEY>
WKIVNYVECBOILW-UHFFFAOYSA-N

> <PUBCHEM_XLOGP3_AA>
2.7

> <PUBCHEM_EXACT_MASS>
458.1633299

> <PUBCHEM_MOLECULAR_FORMULA>
C22H24ClFN6O2

> <PUBCHEM_MOLECULAR_WEIGHT>
458.9

> <PUBCHEM_SMILES>
CN1CCN(C(C1)C(=O)N)CC2=CC3=C(C=C2OC)N=CN=C3NC4=C(C(=CC=C4)Cl)F

> <PUBCHEM_OPENEYE_CAN_SMILES>
CN1CCN(C(C1)C(=O)N)CC2=CC3=C(C=C2OC)N=CN=C3NC4=C(C(=CC=C4)Cl)F

> <PUBCHEM_OPENEYE_ISO_SMILES>
CN1CCN(C(C1)C(=O)N)CC2=CC3=C(C=C2OC)N=CN=C3NC4=C(C(=CC=C4)Cl)F

> <PUBCHEM_CACTVS_TPSA>
96.6

> <PUBCHEM_MONOISOTOPIC_WEIGHT>
458.1633299

> <PUBCHEM_TOTAL_CHARGE>
0

> <PUBCHEM_HEAVY_ATOM_COUNT>
32

> <PUBCHEM_ATOM_DEF_STEREO_COUNT>
0

> <PUBCHEM_ATOM_UDEF_STEREO_COUNT>
1

> <PUBCHEM_BOND_DEF_STEREO_COUNT>
0

> <PUBCHEM_BOND_UDEF_STEREO_COUNT>
0

> <PUBCHEM_ISOTOPIC_ATOM_COUNT>
0

> <PUBCHEM_COMPONENT_COUNT>
1

> <PUBCHEM_CACTVS_TAUTO_COUNT>
-1

> <PUBCHEM_COORDINATE_TYPE>
1
5
255

> <PUBCHEM_BONDANNOTATIONS>
10  24  8
10  26  8
11  16  3
17  19  8
17  20  8
19  22  8
20  21  8
21  23  8
21  24  8
22  23  8
27  28  8
27  29  8
28  30  8
29  31  8
30  32  8
31  32  8
8  23  8
8  26  8

$$$$
