5466794
  -OEChem-03202506152D

 48 51  0     1  0  0  0  0  0999 V2000
    6.9273   -1.1758    0.0000 Cl  0  0  0  0  0  0  0  0  0  0  0  0
    2.5369   -0.6550    0.0000 O   0  0  0  0  0  0  0  0  0  0  0  0
    6.0290    0.3103    0.0000 O   0  0  0  0  0  0  0  0  0  0  0  0
    2.5369    0.3450    0.0000 O   0  0  0  0  0  0  0  0  0  0  0  0
    4.2690    3.3450    0.0000 O   0  0  0  0  0  0  0  0  0  0  0  0
    6.0174    3.3796    0.0000 O   0  0  0  0  0  0  0  0  0  0  0  0
    4.2690   -2.6550    0.0000 N   0  0  3  0  0  0  0  0  0  0  0  0
    4.2690   -0.6550    0.0000 C   0  0  3  0  0  0  0  0  0  0  0  0
    3.4030   -1.1550    0.0000 C   0  0  3  0  0  0  0  0  0  0  0  0
    5.1350   -1.1550    0.0000 C   0  0  0  0  0  0  0  0  0  0  0  0
    3.4030   -2.1550    0.0000 C   0  0  0  0  0  0  0  0  0  0  0  0
    5.1350   -2.1550    0.0000 C   0  0  0  0  0  0  0  0  0  0  0  0
    4.2690    0.3450    0.0000 C   0  0  0  0  0  0  0  0  0  0  0  0
    5.1350    0.8450    0.0000 C   0  0  0  0  0  0  0  0  0  0  0  0
    4.2690   -3.6550    0.0000 C   0  0  0  0  0  0  0  0  0  0  0  0
    3.4030    0.8450    0.0000 C   0  0  0  0  0  0  0  0  0  0  0  0
    5.1350    1.8450    0.0000 C   0  0  0  0  0  0  0  0  0  0  0  0
    3.4030    1.8450    0.0000 C   0  0  0  0  0  0  0  0  0  0  0  0
    4.2690    2.3450    0.0000 C   0  0  0  0  0  0  0  0  0  0  0  0
    6.0290    2.3797    0.0000 C   0  0  0  0  0  0  0  0  0  0  0  0
    6.9350    0.8242    0.0000 C   0  0  0  0  0  0  0  0  0  0  0  0
    6.9350    1.8658    0.0000 C   0  0  0  0  0  0  0  0  0  0  0  0
    7.7991    0.3209    0.0000 C   0  0  0  0  0  0  0  0  0  0  0  0
    7.7953   -0.6791    0.0000 C   0  0  0  0  0  0  0  0  0  0  0  0
    8.6671    0.8175    0.0000 C   0  0  0  0  0  0  0  0  0  0  0  0
    8.6594   -1.1825    0.0000 C   0  0  0  0  0  0  0  0  0  0  0  0
    9.5312    0.3142    0.0000 C   0  0  0  0  0  0  0  0  0  0  0  0
    9.5273   -0.6858    0.0000 C   0  0  0  0  0  0  0  0  0  0  0  0
    4.8059   -0.3450    0.0000 H   0  0  0  0  0  0  0  0  0  0  0  0
    3.4030   -0.5350    0.0000 H   0  0  0  0  0  0  0  0  0  0  0  0
    5.7456   -1.2627    0.0000 H   0  0  0  0  0  0  0  0  0  0  0  0
    5.3471   -0.5724    0.0000 H   0  0  0  0  0  0  0  0  0  0  0  0
    2.7924   -2.0473    0.0000 H   0  0  0  0  0  0  0  0  0  0  0  0
    3.1909   -2.7376    0.0000 H   0  0  0  0  0  0  0  0  0  0  0  0
    5.3471   -2.7376    0.0000 H   0  0  0  0  0  0  0  0  0  0  0  0
    5.7456   -2.0473    0.0000 H   0  0  0  0  0  0  0  0  0  0  0  0
    3.6490   -3.6550    0.0000 H   0  0  0  0  0  0  0  0  0  0  0  0
    4.2690   -4.2750    0.0000 H   0  0  0  0  0  0  0  0  0  0  0  0
    4.8890   -3.6550    0.0000 H   0  0  0  0  0  0  0  0  0  0  0  0
    2.0000   -0.9650    0.0000 H   0  0  0  0  0  0  0  0  0  0  0  0
    2.8660    2.1550    0.0000 H   0  0  0  0  0  0  0  0  0  0  0  0
    7.4708    2.1779    0.0000 H   0  0  0  0  0  0  0  0  0  0  0  0
    2.0000    0.6550    0.0000 H   0  0  0  0  0  0  0  0  0  0  0  0
    3.7320    3.6550    0.0000 H   0  0  0  0  0  0  0  0  0  0  0  0
    8.6694    1.4375    0.0000 H   0  0  0  0  0  0  0  0  0  0  0  0
    8.6570   -1.8025    0.0000 H   0  0  0  0  0  0  0  0  0  0  0  0
   10.0693    0.6221    0.0000 H   0  0  0  0  0  0  0  0  0  0  0  0
   10.0630   -0.9979    0.0000 H   0  0  0  0  0  0  0  0  0  0  0  0
  1 24  1  0  0  0  0
  2  9  1  0  0  0  0
  2 40  1  0  0  0  0
  3 14  1  0  0  0  0
  3 21  1  0  0  0  0
  4 16  1  0  0  0  0
  4 43  1  0  0  0  0
  5 19  1  0  0  0  0
  5 44  1  0  0  0  0
  6 20  2  0  0  0  0
  7 11  1  0  0  0  0
  7 12  1  0  0  0  0
  7 15  1  0  0  0  0
  8  9  1  0  0  0  0
  8 10  1  0  0  0  0
  8 13  1  0  0  0  0
  8 29  1  0  0  0  0
  9 11  1  0  0  0  0
  9 30  1  0  0  0  0
 10 12  1  0  0  0  0
 10 31  1  0  0  0  0
 10 32  1  0  0  0  0
 11 33  1  0  0  0  0
 11 34  1  0  0  0  0
 12 35  1  0  0  0  0
 12 36  1  0  0  0  0
 13 14  1  0  0  0  0
 13 16  2  0  0  0  0
 14 17  2  0  0  0  0
 15 37  1  0  0  0  0
 15 38  1  0  0  0  0
 15 39  1  0  0  0  0
 16 18  1  0  0  0  0
 17 19  1  0  0  0  0
 17 20  1  0  0  0  0
 18 19  2  0  0  0  0
 18 41  1  0  0  0  0
 20 22  1  0  0  0  0
 21 22  2  0  0  0  0
 21 23  1  0  0  0  0
 22 42  1  0  0  0  0
 23 24  1  0  0  0  0
 23 25  2  0  0  0  0
 24 26  2  0  0  0  0
 25 27  1  0  0  0  0
 25 45  1  0  0  0  0
 26 28  1  0  0  0  0
 26 46  1  0  0  0  0
 27 28  2  0  0  0  0
 27 47  1  0  0  0  0
 28 48  1  0  0  0  0
M  END
> <PUBCHEM_COMPOUND_CID>
5466794

> <PUBCHEM_COMPOUND_CANONICALIZED>
1

> <PUBCHEM_CACTVS_COMPLEXITY>
628

> <PUBCHEM_CACTVS_HBOND_ACCEPTOR>
6

> <PUBCHEM_CACTVS_HBOND_DONOR>
3

> <PUBCHEM_CACTVS_ROTATABLE_BOND>
2

> <PUBCHEM_CACTVS_SUBSKEYS>
AAADceB6OAAEAAAAAAAAAAAAAAAAAAAAAAA8YIEAAAAAAACBQAAAHgIACAAADRbhmCYyBoMABgCIAqBSAAACCAAkJQAIiAEOCsgONzaHtxqGeWCl4BWYuQf4/P7OoAACCAAJAABAAAQQABIAAAAAAAAAAA==

> <PUBCHEM_IUPAC_OPENEYE_NAME>
2-(2-chlorophenyl)-5,7-dihydroxy-8-(3-hydroxy-1-methyl-4-piperidyl)chromen-4-one

> <PUBCHEM_IUPAC_CAS_NAME>
2-(2-chlorophenyl)-5,7-dihydroxy-8-(3-hydroxy-1-methyl-4-piperidinyl)-1-benzopyran-4-one

> <PUBCHEM_IUPAC_NAME_MARKUP>
2-(2-chlorophenyl)-5,7-dihydroxy-8-(3-hydroxy-1-methylpiperidin-4-yl)chromen-4-one

> <PUBCHEM_IUPAC_NAME>
2-(2-chlorophenyl)-5,7-dihydroxy-8-(3-hydroxy-1-methylpiperidin-4-yl)chromen-4-one

> <PUBCHEM_IUPAC_SYSTEMATIC_NAME>
2-(2-chlorophenyl)-8-(1-methyl-3-oxidanyl-piperidin-4-yl)-5,7-bis(oxidanyl)chromen-4-one

> <PUBCHEM_IUPAC_TRADITIONAL_NAME>
2-(2-chlorophenyl)-5,7-dihydroxy-8-(3-hydroxy-1-methyl-4-piperidyl)chromone

> <PUBCHEM_IUPAC_INCHI>
InChI=1S/C21H20ClNO5/c1-23-7-6-12(17(27)10-23)19-14(24)8-15(25)20-16(26)9-18(28-21(19)20)11-4-2-3-5-13(11)22/h2-5,8-9,12,17,24-25,27H,6-7,10H2,1H3

> <PUBCHEM_IUPAC_INCHIKEY>
BIIVYFLTOXDAOV-UHFFFAOYSA-N

> <PUBCHEM_XLOGP3_AA>
3.3

> <PUBCHEM_EXACT_MASS>
401.1030004

> <PUBCHEM_MOLECULAR_FORMULA>
C21H20ClNO5

> <PUBCHEM_MOLECULAR_WEIGHT>
401.8

> <PUBCHEM_SMILES>
CN1CCC(C(C1)O)C2=C(C=C(C3=C2OC(=CC3=O)C4=CC=CC=C4Cl)O)O

> <PUBCHEM_OPENEYE_CAN_SMILES>
CN1CCC(C(C1)O)C2=C(C=C(C3=C2OC(=CC3=O)C4=CC=CC=C4Cl)O)O

> <PUBCHEM_OPENEYE_ISO_SMILES>
CN1CCC(C(C1)O)C2=C(C=C(C3=C2OC(=CC3=O)C4=CC=CC=C4Cl)O)O

> <PUBCHEM_CACTVS_TPSA>
90.2

> <PUBCHEM_MONOISOTOPIC_WEIGHT>
401.1030004

> <PUBCHEM_TOTAL_CHARGE>
0

> <PUBCHEM_HEAVY_ATOM_COUNT>
28

> <PUBCHEM_ATOM_DEF_STEREO_COUNT>
0

> <PUBCHEM_ATOM_UDEF_STEREO_COUNT>
2

> <PUBCHEM_BOND_DEF_STEREO_COUNT>
0

> <PUBCHEM_BOND_UDEF_STEREO_COUNT>
0

> <PUBCHEM_ISOTOPIC_ATOM_COUNT>
0

> <PUBCHEM_COMPONENT_COUNT>
1

> <PUBCHEM_CACTVS_TAUTO_COUNT>
-1

> <PUBCHEM_COORDINATE_TYPE>
1
5
255

> <PUBCHEM_BONDANNOTATIONS>
13  14  8
13  16  8
14  17  8
16  18  8
17  19  8
17  20  8
18  19  8
9  2  3
20  22  8
21  22  8
23  24  8
23  25  8
24  26  8
25  27  8
26  28  8
27  28  8
3  14  8
3  21  8
8  13  3

$$$$
