49831052
  -OEChem-03202502322D

 27 29  0     0  0  0  0  0  0999 V2000
    2.0000    0.7315    0.0000 Br  0  0  0  0  0  0  0  0  0  0  0  0
    7.2622    0.7073    0.0000 N   0  0  0  0  0  0  0  0  0  0  0  0
    6.3961   -0.7927    0.0000 N   0  0  0  0  0  0  0  0  0  0  0  0
    8.1282   -0.7927    0.0000 N   0  0  0  0  0  0  0  0  0  0  0  0
    9.8602   -0.7927    0.0000 N   0  0  0  0  0  0  0  0  0  0  0  0
    4.6641    0.2073    0.0000 C   0  0  0  0  0  0  0  0  0  0  0  0
    4.6641   -0.7927    0.0000 C   0  0  0  0  0  0  0  0  0  0  0  0
    5.5301    0.7073    0.0000 C   0  0  0  0  0  0  0  0  0  0  0  0
    6.3961    0.2073    0.0000 C   0  0  0  0  0  0  0  0  0  0  0  0
    3.7702    0.7420    0.0000 C   0  0  0  0  0  0  0  0  0  0  0  0
    3.7702   -1.3273    0.0000 C   0  0  0  0  0  0  0  0  0  0  0  0
    5.5301   -1.2927    0.0000 C   0  0  0  0  0  0  0  0  0  0  0  0
    2.8641    0.2281    0.0000 C   0  0  0  0  0  0  0  0  0  0  0  0
    2.8641   -0.8135    0.0000 C   0  0  0  0  0  0  0  0  0  0  0  0
    8.1282    0.2073    0.0000 C   0  0  0  0  0  0  0  0  0  0  0  0
    8.9942    0.7073    0.0000 C   0  0  0  0  0  0  0  0  0  0  0  0
    9.8602    0.2073    0.0000 C   0  0  0  0  0  0  0  0  0  0  0  0
    8.9942   -1.2927    0.0000 C   0  0  0  0  0  0  0  0  0  0  0  0
    5.5301    1.3273    0.0000 H   0  0  0  0  0  0  0  0  0  0  0  0
    3.7773    1.3620    0.0000 H   0  0  0  0  0  0  0  0  0  0  0  0
    3.7773   -1.9473    0.0000 H   0  0  0  0  0  0  0  0  0  0  0  0
    5.5301   -1.9127    0.0000 H   0  0  0  0  0  0  0  0  0  0  0  0
    7.2622    1.3273    0.0000 H   0  0  0  0  0  0  0  0  0  0  0  0
    2.3284   -1.1256    0.0000 H   0  0  0  0  0  0  0  0  0  0  0  0
    8.9942    1.3273    0.0000 H   0  0  0  0  0  0  0  0  0  0  0  0
   10.3972    0.5173    0.0000 H   0  0  0  0  0  0  0  0  0  0  0  0
    8.9942   -1.9127    0.0000 H   0  0  0  0  0  0  0  0  0  0  0  0
  1 13  1  0  0  0  0
  2  9  1  0  0  0  0
  2 15  1  0  0  0  0
  2 23  1  0  0  0  0
  3  9  2  0  0  0  0
  3 12  1  0  0  0  0
  4 15  2  0  0  0  0
  4 18  1  0  0  0  0
  5 17  1  0  0  0  0
  5 18  2  0  0  0  0
  6  7  1  0  0  0  0
  6  8  2  0  0  0  0
  6 10  1  0  0  0  0
  7 11  1  0  0  0  0
  7 12  2  0  0  0  0
  8  9  1  0  0  0  0
  8 19  1  0  0  0  0
 10 13  2  0  0  0  0
 10 20  1  0  0  0  0
 11 14  2  0  0  0  0
 11 21  1  0  0  0  0
 12 22  1  0  0  0  0
 13 14  1  0  0  0  0
 14 24  1  0  0  0  0
 15 16  1  0  0  0  0
 16 17  2  0  0  0  0
 16 25  1  0  0  0  0
 17 26  1  0  0  0  0
 18 27  1  0  0  0  0
M  END
> <PUBCHEM_COMPOUND_CID>
49831052

> <PUBCHEM_COMPOUND_CANONICALIZED>
1

> <PUBCHEM_CACTVS_COMPLEXITY>
276

> <PUBCHEM_CACTVS_HBOND_ACCEPTOR>
4

> <PUBCHEM_CACTVS_HBOND_DONOR>
1

> <PUBCHEM_CACTVS_ROTATABLE_BOND>
2

> <PUBCHEM_CACTVS_SUBSKEYS>
AAADccBzgAAAEAAAAAAAAAAAAAAAAAAAAAA8WIAAAAAAAACx/AAAHABQAAABrADBGgQ9sNbIEACgAjJnZACCgCkxAqQJ2CA4ZLiIKOLA2dGEJAhokALIyjcQgIAOggAAEAAQAAAEAAAgACAAAAAAAAAAAA==

> <PUBCHEM_IUPAC_OPENEYE_NAME>
6-bromo-N-pyrimidin-4-yl-isoquinolin-3-amine

> <PUBCHEM_IUPAC_CAS_NAME>
6-bromo-N-(4-pyrimidinyl)-3-isoquinolinamine

> <PUBCHEM_IUPAC_NAME_MARKUP>
6-bromo-<I>N</I>-pyrimidin-4-ylisoquinolin-3-amine

> <PUBCHEM_IUPAC_NAME>
6-bromo-N-pyrimidin-4-ylisoquinolin-3-amine

> <PUBCHEM_IUPAC_SYSTEMATIC_NAME>
6-bromanyl-N-pyrimidin-4-yl-isoquinolin-3-amine

> <PUBCHEM_IUPAC_TRADITIONAL_NAME>
(6-bromo-3-isoquinolyl)-(4-pyrimidyl)amine

> <PUBCHEM_IUPAC_INCHI>
InChI=1S/C13H9BrN4/c14-11-2-1-9-7-16-13(6-10(9)5-11)18-12-3-4-15-8-17-12/h1-8H,(H,15,16,17,18)

> <PUBCHEM_IUPAC_INCHIKEY>
IWPWKQLFCMXCMD-UHFFFAOYSA-N

> <PUBCHEM_XLOGP3_AA>
3.3

> <PUBCHEM_EXACT_MASS>
300.00106

> <PUBCHEM_MOLECULAR_FORMULA>
C13H9BrN4

> <PUBCHEM_MOLECULAR_WEIGHT>
301.14

> <PUBCHEM_SMILES>
C1=CC2=CN=C(C=C2C=C1Br)NC3=NC=NC=C3

> <PUBCHEM_OPENEYE_CAN_SMILES>
C1=CC2=CN=C(C=C2C=C1Br)NC3=NC=NC=C3

> <PUBCHEM_OPENEYE_ISO_SMILES>
C1=CC2=CN=C(C=C2C=C1Br)NC3=NC=NC=C3

> <PUBCHEM_CACTVS_TPSA>
50.7

> <PUBCHEM_MONOISOTOPIC_WEIGHT>
300.00106

> <PUBCHEM_TOTAL_CHARGE>
0

> <PUBCHEM_HEAVY_ATOM_COUNT>
18

> <PUBCHEM_ATOM_DEF_STEREO_COUNT>
0

> <PUBCHEM_ATOM_UDEF_STEREO_COUNT>
0

> <PUBCHEM_BOND_DEF_STEREO_COUNT>
0

> <PUBCHEM_BOND_UDEF_STEREO_COUNT>
0

> <PUBCHEM_ISOTOPIC_ATOM_COUNT>
0

> <PUBCHEM_COMPONENT_COUNT>
1

> <PUBCHEM_CACTVS_TAUTO_COUNT>
-1

> <PUBCHEM_COORDINATE_TYPE>
1
5
255

> <PUBCHEM_BONDANNOTATIONS>
10  13  8
11  14  8
13  14  8
15  16  8
16  17  8
3  12  8
3  9  8
4  15  8
4  18  8
5  17  8
5  18  8
6  10  8
6  7  8
6  8  8
7  11  8
7  12  8
8  9  8

$$$$
