11729539
  -OEChem-03202505282D

 55 58  0     0  0  0  0  0  0999 V2000
    5.4400   -2.2422    0.0000 S   0  0  0  0  0  0  0  0  0  0  0  0
    2.8660    2.2821    0.0000 O   0  0  0  0  0  0  0  0  0  0  0  0
    2.8660    4.2821    0.0000 O   0  0  0  0  0  0  0  0  0  0  0  0
    6.3465    1.2475    0.0000 N   0  0  0  0  0  0  0  0  0  0  0  0
    6.3233   -0.7524    0.0000 N   0  0  0  0  0  0  0  0  0  0  0  0
    7.1720   -2.2623    0.0000 N   0  0  0  0  0  0  0  0  0  0  0  0
    7.2641    2.7613    0.0000 N   0  0  0  0  0  0  0  0  0  0  0  0
    6.3580    4.3168    0.0000 N   0  0  0  0  0  0  0  0  0  0  0  0
    7.2067    0.7375    0.0000 C   0  0  0  0  0  0  0  0  0  0  0  0
    5.4747    0.7576    0.0000 C   0  0  0  0  0  0  0  0  0  0  0  0
    7.1951   -0.2624    0.0000 C   0  0  0  0  0  0  0  0  0  0  0  0
    5.4632   -0.2424    0.0000 C   0  0  0  0  0  0  0  0  0  0  0  0
    6.3580    2.2474    0.0000 C   0  0  0  0  0  0  0  0  0  0  0  0
    6.3118   -1.7523    0.0000 C   0  0  0  0  0  0  0  0  0  0  0  0
    5.4641    2.7821    0.0000 C   0  0  0  0  0  0  0  0  0  0  0  0
    5.4641    3.7821    0.0000 C   0  0  0  0  0  0  0  0  0  0  0  0
    4.5981    2.2821    0.0000 C   0  0  0  0  0  0  0  0  0  0  0  0
    7.1604   -3.2622    0.0000 C   0  0  0  0  0  0  0  0  0  0  0  0
    4.5981    4.2821    0.0000 C   0  0  0  0  0  0  0  0  0  0  0  0
    3.7320    2.7821    0.0000 C   0  0  0  0  0  0  0  0  0  0  0  0
    7.2641    3.8029    0.0000 C   0  0  0  0  0  0  0  0  0  0  0  0
    3.7320    3.7821    0.0000 C   0  0  0  0  0  0  0  0  0  0  0  0
    8.0206   -3.7722    0.0000 C   0  0  0  0  0  0  0  0  0  0  0  0
    8.0090   -4.7721    0.0000 C   0  0  0  0  0  0  0  0  0  0  0  0
    8.8924   -3.2822    0.0000 C   0  0  0  0  0  0  0  0  0  0  0  0
    8.8692   -5.2821    0.0000 C   0  0  0  0  0  0  0  0  0  0  0  0
    9.7525   -3.7922    0.0000 C   0  0  0  0  0  0  0  0  0  0  0  0
    2.0000    2.7821    0.0000 C   0  0  0  0  0  0  0  0  0  0  0  0
    9.7410   -4.7922    0.0000 C   0  0  0  0  0  0  0  0  0  0  0  0
    2.8660    5.2821    0.0000 C   0  0  0  0  0  0  0  0  0  0  0  0
    7.8160    0.6228    0.0000 H   0  0  0  0  0  0  0  0  0  0  0  0
    7.4254    1.3176    0.0000 H   0  0  0  0  0  0  0  0  0  0  0  0
    5.2694    1.3426    0.0000 H   0  0  0  0  0  0  0  0  0  0  0  0
    4.8630    0.6570    0.0000 H   0  0  0  0  0  0  0  0  0  0  0  0
    7.4004   -0.8474    0.0000 H   0  0  0  0  0  0  0  0  0  0  0  0
    7.8069   -0.1618    0.0000 H   0  0  0  0  0  0  0  0  0  0  0  0
    4.8539   -0.1277    0.0000 H   0  0  0  0  0  0  0  0  0  0  0  0
    5.2444   -0.8225    0.0000 H   0  0  0  0  0  0  0  0  0  0  0  0
    7.7125   -1.9585    0.0000 H   0  0  0  0  0  0  0  0  0  0  0  0
    4.5981    1.6621    0.0000 H   0  0  0  0  0  0  0  0  0  0  0  0
    6.5511   -3.1475    0.0000 H   0  0  0  0  0  0  0  0  0  0  0  0
    6.9416   -3.8423    0.0000 H   0  0  0  0  0  0  0  0  0  0  0  0
    4.5981    4.9021    0.0000 H   0  0  0  0  0  0  0  0  0  0  0  0
    7.7998    4.1150    0.0000 H   0  0  0  0  0  0  0  0  0  0  0  0
    7.4686   -5.0759    0.0000 H   0  0  0  0  0  0  0  0  0  0  0  0
    8.8995   -2.6623    0.0000 H   0  0  0  0  0  0  0  0  0  0  0  0
    8.8620   -5.9021    0.0000 H   0  0  0  0  0  0  0  0  0  0  0  0
   10.2930   -3.4884    0.0000 H   0  0  0  0  0  0  0  0  0  0  0  0
    2.3100    3.3190    0.0000 H   0  0  0  0  0  0  0  0  0  0  0  0
    1.4631    3.0921    0.0000 H   0  0  0  0  0  0  0  0  0  0  0  0
    1.6900    2.2452    0.0000 H   0  0  0  0  0  0  0  0  0  0  0  0
   10.2743   -5.1083    0.0000 H   0  0  0  0  0  0  0  0  0  0  0  0
    3.4860    5.2821    0.0000 H   0  0  0  0  0  0  0  0  0  0  0  0
    2.8660    5.9021    0.0000 H   0  0  0  0  0  0  0  0  0  0  0  0
    2.2460    5.2821    0.0000 H   0  0  0  0  0  0  0  0  0  0  0  0
  1 14  2  0  0  0  0
  2 20  1  0  0  0  0
  2 28  1  0  0  0  0
  3 22  1  0  0  0  0
  3 30  1  0  0  0  0
  4  9  1  0  0  0  0
  4 10  1  0  0  0  0
  4 13  1  0  0  0  0
  5 11  1  0  0  0  0
  5 12  1  0  0  0  0
  5 14  1  0  0  0  0
  6 14  1  0  0  0  0
  6 18  1  0  0  0  0
  6 39  1  0  0  0  0
  7 13  2  0  0  0  0
  7 21  1  0  0  0  0
  8 16  1  0  0  0  0
  8 21  2  0  0  0  0
  9 11  1  0  0  0  0
  9 31  1  0  0  0  0
  9 32  1  0  0  0  0
 10 12  1  0  0  0  0
 10 33  1  0  0  0  0
 10 34  1  0  0  0  0
 11 35  1  0  0  0  0
 11 36  1  0  0  0  0
 12 37  1  0  0  0  0
 12 38  1  0  0  0  0
 13 15  1  0  0  0  0
 15 16  1  0  0  0  0
 15 17  2  0  0  0  0
 16 19  2  0  0  0  0
 17 20  1  0  0  0  0
 17 40  1  0  0  0  0
 18 23  1  0  0  0  0
 18 41  1  0  0  0  0
 18 42  1  0  0  0  0
 19 22  1  0  0  0  0
 19 43  1  0  0  0  0
 20 22  2  0  0  0  0
 21 44  1  0  0  0  0
 23 24  2  0  0  0  0
 23 25  1  0  0  0  0
 24 26  1  0  0  0  0
 24 45  1  0  0  0  0
 25 27  2  0  0  0  0
 25 46  1  0  0  0  0
 26 29  2  0  0  0  0
 26 47  1  0  0  0  0
 27 29  1  0  0  0  0
 27 48  1  0  0  0  0
 28 49  1  0  0  0  0
 28 50  1  0  0  0  0
 28 51  1  0  0  0  0
 29 52  1  0  0  0  0
 30 53  1  0  0  0  0
 30 54  1  0  0  0  0
 30 55  1  0  0  0  0
M  END
> <PUBCHEM_COMPOUND_CID>
11729539

> <PUBCHEM_COMPOUND_CANONICALIZED>
1

> <PUBCHEM_CACTVS_COMPLEXITY>
554

> <PUBCHEM_CACTVS_HBOND_ACCEPTOR>
6

> <PUBCHEM_CACTVS_HBOND_DONOR>
1

> <PUBCHEM_CACTVS_ROTATABLE_BOND>
5

> <PUBCHEM_CACTVS_SUBSKEYS>
AAADceB7sABAAAAAAAAAAAAAAAAAAAAAAAA8eIEAAAAAAACx9AAAHgQQAAAADAzBngY39vfIFACkAyZjZACCiCkxIqkJ2KA+7JiNbqLE+duUNCpuwBvK6Cew0BMOIEABAgACQABAgAIEAASAAAAAAAAAAA==

> <PUBCHEM_IUPAC_OPENEYE_NAME>
N-benzyl-4-(6,7-dimethoxyquinazolin-4-yl)piperazine-1-carbothioamide

> <PUBCHEM_IUPAC_CAS_NAME>
4-(6,7-dimethoxy-4-quinazolinyl)-N-(phenylmethyl)-1-piperazinecarbothioamide

> <PUBCHEM_IUPAC_NAME_MARKUP>
<I>N</I>-benzyl-4-(6,7-dimethoxyquinazolin-4-yl)piperazine-1-carbothioamide

> <PUBCHEM_IUPAC_NAME>
N-benzyl-4-(6,7-dimethoxyquinazolin-4-yl)piperazine-1-carbothioamide

> <PUBCHEM_IUPAC_SYSTEMATIC_NAME>
4-(6,7-dimethoxyquinazolin-4-yl)-N-(phenylmethyl)piperazine-1-carbothioamide

> <PUBCHEM_IUPAC_TRADITIONAL_NAME>
N-benzyl-4-(6,7-dimethoxyquinazolin-4-yl)piperazine-1-carbothioamide

> <PUBCHEM_IUPAC_INCHI>
InChI=1S/C22H25N5O2S/c1-28-19-12-17-18(13-20(19)29-2)24-15-25-21(17)26-8-10-27(11-9-26)22(30)23-14-16-6-4-3-5-7-16/h3-7,12-13,15H,8-11,14H2,1-2H3,(H,23,30)

> <PUBCHEM_IUPAC_INCHIKEY>
GMGARXSMYFVUCD-UHFFFAOYSA-N

> <PUBCHEM_XLOGP3_AA>
3.1

> <PUBCHEM_EXACT_MASS>
423.17289623

> <PUBCHEM_MOLECULAR_FORMULA>
C22H25N5O2S

> <PUBCHEM_MOLECULAR_WEIGHT>
423.5

> <PUBCHEM_SMILES>
COC1=C(C=C2C(=C1)C(=NC=N2)N3CCN(CC3)C(=S)NCC4=CC=CC=C4)OC

> <PUBCHEM_OPENEYE_CAN_SMILES>
COC1=C(C=C2C(=C1)C(=NC=N2)N3CCN(CC3)C(=S)NCC4=CC=CC=C4)OC

> <PUBCHEM_OPENEYE_ISO_SMILES>
COC1=C(C=C2C(=C1)C(=NC=N2)N3CCN(CC3)C(=S)NCC4=CC=CC=C4)OC

> <PUBCHEM_CACTVS_TPSA>
94.8

> <PUBCHEM_MONOISOTOPIC_WEIGHT>
423.17289623

> <PUBCHEM_TOTAL_CHARGE>
0

> <PUBCHEM_HEAVY_ATOM_COUNT>
30

> <PUBCHEM_ATOM_DEF_STEREO_COUNT>
0

> <PUBCHEM_ATOM_UDEF_STEREO_COUNT>
0

> <PUBCHEM_BOND_DEF_STEREO_COUNT>
0

> <PUBCHEM_BOND_UDEF_STEREO_COUNT>
0

> <PUBCHEM_ISOTOPIC_ATOM_COUNT>
0

> <PUBCHEM_COMPONENT_COUNT>
1

> <PUBCHEM_CACTVS_TAUTO_COUNT>
-1

> <PUBCHEM_COORDINATE_TYPE>
1
5
255

> <PUBCHEM_BONDANNOTATIONS>
13  15  8
15  16  8
15  17  8
16  19  8
17  20  8
19  22  8
20  22  8
23  24  8
23  25  8
24  26  8
25  27  8
26  29  8
27  29  8
7  13  8
7  21  8
8  16  8
8  21  8

$$$$
