10905857
  -OEChem-03192523162D

 53 56  0     0  0  0  0  0  0999 V2000
    5.4400   -1.2523    0.0000 O   0  0  0  0  0  0  0  0  0  0  0  0
    2.8660    3.2720    0.0000 O   0  0  0  0  0  0  0  0  0  0  0  0
    2.8660    5.2720    0.0000 O   0  0  0  0  0  0  0  0  0  0  0  0
    6.3465    2.2374    0.0000 N   0  0  0  0  0  0  0  0  0  0  0  0
    6.3233    0.2376    0.0000 N   0  0  0  0  0  0  0  0  0  0  0  0
    7.2641    3.7512    0.0000 N   0  0  0  0  0  0  0  0  0  0  0  0
    7.1720   -1.2724    0.0000 N   0  0  0  0  0  0  0  0  0  0  0  0
    6.3580    5.3067    0.0000 N   0  0  0  0  0  0  0  0  0  0  0  0
    7.1142   -6.2720    0.0000 N   0  0  0  0  0  0  0  0  0  0  0  0
    7.2067    1.7274    0.0000 C   0  0  0  0  0  0  0  0  0  0  0  0
    5.4747    1.7475    0.0000 C   0  0  0  0  0  0  0  0  0  0  0  0
    7.1951    0.7275    0.0000 C   0  0  0  0  0  0  0  0  0  0  0  0
    5.4632    0.7475    0.0000 C   0  0  0  0  0  0  0  0  0  0  0  0
    6.3580    3.2374    0.0000 C   0  0  0  0  0  0  0  0  0  0  0  0
    6.3118   -0.7624    0.0000 C   0  0  0  0  0  0  0  0  0  0  0  0
    5.4641    3.7720    0.0000 C   0  0  0  0  0  0  0  0  0  0  0  0
    5.4641    4.7720    0.0000 C   0  0  0  0  0  0  0  0  0  0  0  0
    4.5981    3.2720    0.0000 C   0  0  0  0  0  0  0  0  0  0  0  0
    4.5981    5.2720    0.0000 C   0  0  0  0  0  0  0  0  0  0  0  0
    3.7320    3.7720    0.0000 C   0  0  0  0  0  0  0  0  0  0  0  0
    7.2641    4.7928    0.0000 C   0  0  0  0  0  0  0  0  0  0  0  0
    3.7320    4.7720    0.0000 C   0  0  0  0  0  0  0  0  0  0  0  0
    7.1604   -2.2723    0.0000 C   0  0  0  0  0  0  0  0  0  0  0  0
    8.0206   -2.7823    0.0000 C   0  0  0  0  0  0  0  0  0  0  0  0
    6.2887   -2.7622    0.0000 C   0  0  0  0  0  0  0  0  0  0  0  0
    8.0090   -3.7822    0.0000 C   0  0  0  0  0  0  0  0  0  0  0  0
    6.2771   -3.7622    0.0000 C   0  0  0  0  0  0  0  0  0  0  0  0
    7.1373   -4.2722    0.0000 C   0  0  0  0  0  0  0  0  0  0  0  0
    2.0000    3.7720    0.0000 C   0  0  0  0  0  0  0  0  0  0  0  0
    2.8660    6.2720    0.0000 C   0  0  0  0  0  0  0  0  0  0  0  0
    7.1257   -5.2721    0.0000 C   0  0  0  0  0  0  0  0  0  0  0  0
    7.8160    1.6127    0.0000 H   0  0  0  0  0  0  0  0  0  0  0  0
    7.4254    2.3076    0.0000 H   0  0  0  0  0  0  0  0  0  0  0  0
    5.2694    2.3325    0.0000 H   0  0  0  0  0  0  0  0  0  0  0  0
    4.8630    1.6469    0.0000 H   0  0  0  0  0  0  0  0  0  0  0  0
    7.4004    0.1425    0.0000 H   0  0  0  0  0  0  0  0  0  0  0  0
    7.8069    0.8281    0.0000 H   0  0  0  0  0  0  0  0  0  0  0  0
    4.8539    0.8623    0.0000 H   0  0  0  0  0  0  0  0  0  0  0  0
    5.2444    0.1674    0.0000 H   0  0  0  0  0  0  0  0  0  0  0  0
    4.5981    2.6520    0.0000 H   0  0  0  0  0  0  0  0  0  0  0  0
    7.7125   -0.9686    0.0000 H   0  0  0  0  0  0  0  0  0  0  0  0
    4.5981    5.8920    0.0000 H   0  0  0  0  0  0  0  0  0  0  0  0
    7.7998    5.1049    0.0000 H   0  0  0  0  0  0  0  0  0  0  0  0
    8.5611   -2.4785    0.0000 H   0  0  0  0  0  0  0  0  0  0  0  0
    5.7554   -2.4460    0.0000 H   0  0  0  0  0  0  0  0  0  0  0  0
    8.5424   -4.0984    0.0000 H   0  0  0  0  0  0  0  0  0  0  0  0
    5.7366   -4.0659    0.0000 H   0  0  0  0  0  0  0  0  0  0  0  0
    2.3100    4.3090    0.0000 H   0  0  0  0  0  0  0  0  0  0  0  0
    1.4631    4.0820    0.0000 H   0  0  0  0  0  0  0  0  0  0  0  0
    1.6900    3.2351    0.0000 H   0  0  0  0  0  0  0  0  0  0  0  0
    3.4860    6.2720    0.0000 H   0  0  0  0  0  0  0  0  0  0  0  0
    2.8660    6.8920    0.0000 H   0  0  0  0  0  0  0  0  0  0  0  0
    2.2460    6.2720    0.0000 H   0  0  0  0  0  0  0  0  0  0  0  0
  1 15  2  0  0  0  0
  2 20  1  0  0  0  0
  2 29  1  0  0  0  0
  3 22  1  0  0  0  0
  3 30  1  0  0  0  0
  4 10  1  0  0  0  0
  4 11  1  0  0  0  0
  4 14  1  0  0  0  0
  5 12  1  0  0  0  0
  5 13  1  0  0  0  0
  5 15  1  0  0  0  0
  6 14  2  0  0  0  0
  6 21  1  0  0  0  0
  7 15  1  0  0  0  0
  7 23  1  0  0  0  0
  7 41  1  0  0  0  0
  8 17  1  0  0  0  0
  8 21  2  0  0  0  0
  9 31  3  0  0  0  0
 10 12  1  0  0  0  0
 10 32  1  0  0  0  0
 10 33  1  0  0  0  0
 11 13  1  0  0  0  0
 11 34  1  0  0  0  0
 11 35  1  0  0  0  0
 12 36  1  0  0  0  0
 12 37  1  0  0  0  0
 13 38  1  0  0  0  0
 13 39  1  0  0  0  0
 14 16  1  0  0  0  0
 16 17  1  0  0  0  0
 16 18  2  0  0  0  0
 17 19  2  0  0  0  0
 18 20  1  0  0  0  0
 18 40  1  0  0  0  0
 19 22  1  0  0  0  0
 19 42  1  0  0  0  0
 20 22  2  0  0  0  0
 21 43  1  0  0  0  0
 23 24  2  0  0  0  0
 23 25  1  0  0  0  0
 24 26  1  0  0  0  0
 24 44  1  0  0  0  0
 25 27  2  0  0  0  0
 25 45  1  0  0  0  0
 26 28  2  0  0  0  0
 26 46  1  0  0  0  0
 27 28  1  0  0  0  0
 27 47  1  0  0  0  0
 28 31  1  0  0  0  0
 29 48  1  0  0  0  0
 29 49  1  0  0  0  0
 29 50  1  0  0  0  0
 30 51  1  0  0  0  0
 30 52  1  0  0  0  0
 30 53  1  0  0  0  0
M  END
> <PUBCHEM_COMPOUND_CID>
10905857

> <PUBCHEM_COMPOUND_CANONICALIZED>
1

> <PUBCHEM_CACTVS_COMPLEXITY>
653

> <PUBCHEM_CACTVS_HBOND_ACCEPTOR>
7

> <PUBCHEM_CACTVS_HBOND_DONOR>
1

> <PUBCHEM_CACTVS_ROTATABLE_BOND>
4

> <PUBCHEM_CACTVS_SUBSKEYS>
AAADceB7sAAAAAAAAAAAAAAAAAAAAAAAAAA8eIEAAAAAAACx9AAAHgAQAAAADAzBngY39vfIFAC4ByZjdACiiCkxIqAJ2CA+7JiN7qLE+duUNCpu1hvK6C+w0BMOKEABAgACQABQgAIEAASAAAAAAAAAAA==

> <PUBCHEM_IUPAC_OPENEYE_NAME>
N-(4-cyanophenyl)-4-(6,7-dimethoxyquinazolin-4-yl)piperazine-1-carboxamide

> <PUBCHEM_IUPAC_CAS_NAME>
N-(4-cyanophenyl)-4-(6,7-dimethoxy-4-quinazolinyl)-1-piperazinecarboxamide

> <PUBCHEM_IUPAC_NAME_MARKUP>
<I>N</I>-(4-cyanophenyl)-4-(6,7-dimethoxyquinazolin-4-yl)piperazine-1-carboxamide

> <PUBCHEM_IUPAC_NAME>
N-(4-cyanophenyl)-4-(6,7-dimethoxyquinazolin-4-yl)piperazine-1-carboxamide

> <PUBCHEM_IUPAC_SYSTEMATIC_NAME>
N-(4-cyanophenyl)-4-(6,7-dimethoxyquinazolin-4-yl)piperazine-1-carboxamide

> <PUBCHEM_IUPAC_TRADITIONAL_NAME>
N-(4-cyanophenyl)-4-(6,7-dimethoxyquinazolin-4-yl)piperazine-1-carboxamide

> <PUBCHEM_IUPAC_INCHI>
InChI=1S/C22H22N6O3/c1-30-19-11-17-18(12-20(19)31-2)24-14-25-21(17)27-7-9-28(10-8-27)22(29)26-16-5-3-15(13-23)4-6-16/h3-6,11-12,14H,7-10H2,1-2H3,(H,26,29)

> <PUBCHEM_IUPAC_INCHIKEY>
SOTRSERIYXCWEZ-UHFFFAOYSA-N

> <PUBCHEM_XLOGP3_AA>
2.3

> <PUBCHEM_EXACT_MASS>
418.17533859

> <PUBCHEM_MOLECULAR_FORMULA>
C22H22N6O3

> <PUBCHEM_MOLECULAR_WEIGHT>
418.4

> <PUBCHEM_SMILES>
COC1=C(C=C2C(=C1)C(=NC=N2)N3CCN(CC3)C(=O)NC4=CC=C(C=C4)C#N)OC

> <PUBCHEM_OPENEYE_CAN_SMILES>
COC1=C(C=C2C(=C1)C(=NC=N2)N3CCN(CC3)C(=O)NC4=CC=C(C=C4)C#N)OC

> <PUBCHEM_OPENEYE_ISO_SMILES>
COC1=C(C=C2C(=C1)C(=NC=N2)N3CCN(CC3)C(=O)NC4=CC=C(C=C4)C#N)OC

> <PUBCHEM_CACTVS_TPSA>
104

> <PUBCHEM_MONOISOTOPIC_WEIGHT>
418.17533859

> <PUBCHEM_TOTAL_CHARGE>
0

> <PUBCHEM_HEAVY_ATOM_COUNT>
31

> <PUBCHEM_ATOM_DEF_STEREO_COUNT>
0

> <PUBCHEM_ATOM_UDEF_STEREO_COUNT>
0

> <PUBCHEM_BOND_DEF_STEREO_COUNT>
0

> <PUBCHEM_BOND_UDEF_STEREO_COUNT>
0

> <PUBCHEM_ISOTOPIC_ATOM_COUNT>
0

> <PUBCHEM_COMPONENT_COUNT>
1

> <PUBCHEM_CACTVS_TAUTO_COUNT>
-1

> <PUBCHEM_COORDINATE_TYPE>
1
5
255

> <PUBCHEM_BONDANNOTATIONS>
14  16  8
16  17  8
16  18  8
17  19  8
18  20  8
19  22  8
20  22  8
23  24  8
23  25  8
24  26  8
25  27  8
26  28  8
27  28  8
6  14  8
6  21  8
8  17  8
8  21  8

$$$$
