25263111
  -OEChem-03202506322D

 50 53  0     0  0  0  0  0  0999 V2000
    6.1346    0.4938    0.0000 S   0  0  0  0  0  0  0  0  0  0  0  0
    9.5999    4.0715    0.0000 F   0  0  0  0  0  0  0  0  0  0  0  0
    8.2787    3.5669    0.0000 F   0  0  0  0  0  0  0  0  0  0  0  0
    8.7832    2.2458    0.0000 F   0  0  0  0  0  0  0  0  0  0  0  0
    8.4843    1.5775    0.0000 O   0  0  0  0  0  0  0  0  0  0  0  0
    2.8660   -1.0715    0.0000 O   0  0  0  0  0  0  0  0  0  0  0  0
    2.8660   -3.0715    0.0000 O   0  0  0  0  0  0  0  0  0  0  0  0
    7.0868    2.9954    0.0000 O   0  0  0  0  0  0  0  0  0  0  0  0
    5.4386    2.4630    0.0000 O   0  0  0  0  0  0  0  0  0  0  0  0
    6.4103   -1.2667    0.0000 N   0  0  0  0  0  0  0  0  0  0  0  0
    6.4103   -2.8762    0.0000 N   0  0  0  0  0  0  0  0  0  0  0  0
    5.4641   -1.5715    0.0000 C   0  0  0  0  0  0  0  0  0  0  0  0
    5.4641   -2.5715    0.0000 C   0  0  0  0  0  0  0  0  0  0  0  0
    6.7210   -0.3162    0.0000 C   0  0  0  0  0  0  0  0  0  0  0  0
    4.5981   -1.0715    0.0000 C   0  0  0  0  0  0  0  0  0  0  0  0
    6.9939   -2.0715    0.0000 C   0  0  0  0  0  0  0  0  0  0  0  0
    7.6726   -0.0088    0.0000 C   0  0  0  0  0  0  0  0  0  0  0  0
    7.6743    0.9912    0.0000 C   0  0  0  0  0  0  0  0  0  0  0  0
    4.5981   -3.0715    0.0000 C   0  0  0  0  0  0  0  0  0  0  0  0
    3.7320   -1.5715    0.0000 C   0  0  0  0  0  0  0  0  0  0  0  0
    3.7320   -2.5715    0.0000 C   0  0  0  0  0  0  0  0  0  0  0  0
    6.7238    1.3018    0.0000 C   0  0  0  0  0  0  0  0  0  0  0  0
    9.3972    1.1692    0.0000 C   0  0  0  0  0  0  0  0  0  0  0  0
   10.2072    1.7556    0.0000 C   0  0  0  0  0  0  0  0  0  0  0  0
   10.1044    2.7503    0.0000 C   0  0  0  0  0  0  0  0  0  0  0  0
   11.1201    1.3473    0.0000 C   0  0  0  0  0  0  0  0  0  0  0  0
   10.9144    3.3367    0.0000 C   0  0  0  0  0  0  0  0  0  0  0  0
    9.1916    3.1586    0.0000 C   0  0  0  0  0  0  0  0  0  0  0  0
    6.4164    2.2534    0.0000 C   0  0  0  0  0  0  0  0  0  0  0  0
   11.9301    1.9337    0.0000 C   0  0  0  0  0  0  0  0  0  0  0  0
   11.8273    2.9284    0.0000 C   0  0  0  0  0  0  0  0  0  0  0  0
    2.0000   -1.5715    0.0000 C   0  0  0  0  0  0  0  0  0  0  0  0
    2.8660   -4.0715    0.0000 C   0  0  0  0  0  0  0  0  0  0  0  0
    4.5981   -0.4515    0.0000 H   0  0  0  0  0  0  0  0  0  0  0  0
    7.6139   -2.0715    0.0000 H   0  0  0  0  0  0  0  0  0  0  0  0
    8.1735   -0.3741    0.0000 H   0  0  0  0  0  0  0  0  0  0  0  0
    4.5981   -3.6915    0.0000 H   0  0  0  0  0  0  0  0  0  0  0  0
    9.0496    0.6558    0.0000 H   0  0  0  0  0  0  0  0  0  0  0  0
    9.8424    0.7378    0.0000 H   0  0  0  0  0  0  0  0  0  0  0  0
   11.1838    0.7306    0.0000 H   0  0  0  0  0  0  0  0  0  0  0  0
   10.8507    3.9534    0.0000 H   0  0  0  0  0  0  0  0  0  0  0  0
   12.4960    1.6805    0.0000 H   0  0  0  0  0  0  0  0  0  0  0  0
   12.3295    3.2919    0.0000 H   0  0  0  0  0  0  0  0  0  0  0  0
    1.6900   -1.0345    0.0000 H   0  0  0  0  0  0  0  0  0  0  0  0
    1.4631   -1.8815    0.0000 H   0  0  0  0  0  0  0  0  0  0  0  0
    2.3100   -2.1084    0.0000 H   0  0  0  0  0  0  0  0  0  0  0  0
    2.2460   -4.0715    0.0000 H   0  0  0  0  0  0  0  0  0  0  0  0
    2.8660   -4.6915    0.0000 H   0  0  0  0  0  0  0  0  0  0  0  0
    3.4860   -4.0715    0.0000 H   0  0  0  0  0  0  0  0  0  0  0  0
    6.8963    3.5854    0.0000 H   0  0  0  0  0  0  0  0  0  0  0  0
  1 14  1  0  0  0  0
  1 22  1  0  0  0  0
  2 28  1  0  0  0  0
  3 28  1  0  0  0  0
  4 28  1  0  0  0  0
  5 18  1  0  0  0  0
  5 23  1  0  0  0  0
  6 20  1  0  0  0  0
  6 32  1  0  0  0  0
  7 21  1  0  0  0  0
  7 33  1  0  0  0  0
  8 29  1  0  0  0  0
  8 50  1  0  0  0  0
  9 29  2  0  0  0  0
 10 12  1  0  0  0  0
 10 14  1  0  0  0  0
 10 16  1  0  0  0  0
 11 13  1  0  0  0  0
 11 16  2  0  0  0  0
 12 13  1  0  0  0  0
 12 15  2  0  0  0  0
 13 19  2  0  0  0  0
 14 17  2  0  0  0  0
 15 20  1  0  0  0  0
 15 34  1  0  0  0  0
 16 35  1  0  0  0  0
 17 18  1  0  0  0  0
 17 36  1  0  0  0  0
 18 22  2  0  0  0  0
 19 21  1  0  0  0  0
 19 37  1  0  0  0  0
 20 21  2  0  0  0  0
 22 29  1  0  0  0  0
 23 24  1  0  0  0  0
 23 38  1  0  0  0  0
 23 39  1  0  0  0  0
 24 25  1  0  0  0  0
 24 26  2  0  0  0  0
 25 27  2  0  0  0  0
 25 28  1  0  0  0  0
 26 30  1  0  0  0  0
 26 40  1  0  0  0  0
 27 31  1  0  0  0  0
 27 41  1  0  0  0  0
 30 31  2  0  0  0  0
 30 42  1  0  0  0  0
 31 43  1  0  0  0  0
 32 44  1  0  0  0  0
 32 45  1  0  0  0  0
 32 46  1  0  0  0  0
 33 47  1  0  0  0  0
 33 48  1  0  0  0  0
 33 49  1  0  0  0  0
M  END
> <PUBCHEM_COMPOUND_CID>
25263111

> <PUBCHEM_COMPOUND_CANONICALIZED>
1

> <PUBCHEM_CACTVS_COMPLEXITY>
687

> <PUBCHEM_CACTVS_HBOND_ACCEPTOR>
10

> <PUBCHEM_CACTVS_HBOND_DONOR>
1

> <PUBCHEM_CACTVS_ROTATABLE_BOND>
7

> <PUBCHEM_CACTVS_SUBSKEYS>
AAADceB7OYBAAAAAAAAAAAAAAAAAAWJAAAAwYAAAAAAAAFgB/AAAHwQACAAADAyh3hY337cMFgisAyTzbACDiK11OrhJ2Ds+/NiNb/bkvZuWeWrv4Bvq+Se40aMOgEAAAgAQQCAAgAAEACCAQAAAAAAAAA==

> <PUBCHEM_IUPAC_OPENEYE_NAME>
5-(5,6-dimethoxybenzimidazol-1-yl)-3-[[2-(trifluoromethyl)phenyl]methoxy]thiophene-2-carboxylic acid

> <PUBCHEM_IUPAC_CAS_NAME>
5-(5,6-dimethoxy-1-benzimidazolyl)-3-[[2-(trifluoromethyl)phenyl]methoxy]-2-thiophenecarboxylic acid

> <PUBCHEM_IUPAC_NAME_MARKUP>
5-(5,6-dimethoxybenzimidazol-1-yl)-3-[[2-(trifluoromethyl)phenyl]methoxy]thiophene-2-carboxylic acid

> <PUBCHEM_IUPAC_NAME>
5-(5,6-dimethoxybenzimidazol-1-yl)-3-[[2-(trifluoromethyl)phenyl]methoxy]thiophene-2-carboxylic acid

> <PUBCHEM_IUPAC_SYSTEMATIC_NAME>
5-(5,6-dimethoxybenzimidazol-1-yl)-3-[[2-(trifluoromethyl)phenyl]methoxy]thiophene-2-carboxylic acid

> <PUBCHEM_IUPAC_TRADITIONAL_NAME>
5-(5,6-dimethoxybenzimidazol-1-yl)-3-[2-(trifluoromethyl)benzyl]oxy-2-thenoic acid

> <PUBCHEM_IUPAC_INCHI>
InChI=1S/C22H17F3N2O5S/c1-30-16-7-14-15(8-17(16)31-2)27(11-26-14)19-9-18(20(33-19)21(28)29)32-10-12-5-3-4-6-13(12)22(23,24)25/h3-9,11H,10H2,1-2H3,(H,28,29)

> <PUBCHEM_IUPAC_INCHIKEY>
JAMDNXUAYUHJLJ-UHFFFAOYSA-N

> <PUBCHEM_XLOGP3_AA>
5.3

> <PUBCHEM_EXACT_MASS>
478.08102731

> <PUBCHEM_MOLECULAR_FORMULA>
C22H17F3N2O5S

> <PUBCHEM_MOLECULAR_WEIGHT>
478.4

> <PUBCHEM_SMILES>
COC1=C(C=C2C(=C1)N=CN2C3=CC(=C(S3)C(=O)O)OCC4=CC=CC=C4C(F)(F)F)OC

> <PUBCHEM_OPENEYE_CAN_SMILES>
COC1=C(C=C2C(=C1)N=CN2C3=CC(=C(S3)C(=O)O)OCC4=CC=CC=C4C(F)(F)F)OC

> <PUBCHEM_OPENEYE_ISO_SMILES>
COC1=C(C=C2C(=C1)N=CN2C3=CC(=C(S3)C(=O)O)OCC4=CC=CC=C4C(F)(F)F)OC

> <PUBCHEM_CACTVS_TPSA>
111

> <PUBCHEM_MONOISOTOPIC_WEIGHT>
478.08102731

> <PUBCHEM_TOTAL_CHARGE>
0

> <PUBCHEM_HEAVY_ATOM_COUNT>
33

> <PUBCHEM_ATOM_DEF_STEREO_COUNT>
0

> <PUBCHEM_ATOM_UDEF_STEREO_COUNT>
0

> <PUBCHEM_BOND_DEF_STEREO_COUNT>
0

> <PUBCHEM_BOND_UDEF_STEREO_COUNT>
0

> <PUBCHEM_ISOTOPIC_ATOM_COUNT>
0

> <PUBCHEM_COMPONENT_COUNT>
1

> <PUBCHEM_CACTVS_TAUTO_COUNT>
-1

> <PUBCHEM_COORDINATE_TYPE>
1
5
255

> <PUBCHEM_BONDANNOTATIONS>
1  14  8
1  22  8
10  12  8
10  16  8
11  13  8
11  16  8
12  13  8
12  15  8
13  19  8
14  17  8
15  20  8
17  18  8
18  22  8
19  21  8
20  21  8
24  25  8
24  26  8
25  27  8
26  30  8
27  31  8
30  31  8

$$$$
