11715767
  -OEChem-03202504522D

 27 29  0     0  0  0  0  0  0999 V2000
    3.4030    1.6970    0.0000 O   0  0  0  0  0  0  0  0  0  0  0  0
    5.2152   -1.1077    0.0000 N   0  0  0  0  0  0  0  0  0  0  0  0
    2.5369    0.1970    0.0000 N   0  0  0  0  0  0  0  0  0  0  0  0
    8.7988   -0.3030    0.0000 N   0  0  0  0  0  0  0  0  0  0  0  0
    4.2690   -0.8030    0.0000 C   0  0  0  0  0  0  0  0  0  0  0  0
    3.4030   -1.3030    0.0000 C   0  0  0  0  0  0  0  0  0  0  0  0
    4.2690    0.1970    0.0000 C   0  0  0  0  0  0  0  0  0  0  0  0
    2.5369   -0.8030    0.0000 C   0  0  0  0  0  0  0  0  0  0  0  0
    5.7988   -0.3030    0.0000 C   0  0  0  0  0  0  0  0  0  0  0  0
    5.2152    0.5018    0.0000 C   0  0  0  0  0  0  0  0  0  0  0  0
    3.4030    0.6970    0.0000 C   0  0  0  0  0  0  0  0  0  0  0  0
    6.7988   -0.3030    0.0000 C   0  0  0  0  0  0  0  0  0  0  0  0
    7.2988   -1.1690    0.0000 C   0  0  0  0  0  0  0  0  0  0  0  0
    7.2988    0.5631    0.0000 C   0  0  0  0  0  0  0  0  0  0  0  0
    8.2988   -1.1690    0.0000 C   0  0  0  0  0  0  0  0  0  0  0  0
    8.2988    0.5631    0.0000 C   0  0  0  0  0  0  0  0  0  0  0  0
    3.0044   -1.7779    0.0000 H   0  0  0  0  0  0  0  0  0  0  0  0
    3.8015   -1.7779    0.0000 H   0  0  0  0  0  0  0  0  0  0  0  0
    1.9264   -0.6953    0.0000 H   0  0  0  0  0  0  0  0  0  0  0  0
    2.3249   -1.3856    0.0000 H   0  0  0  0  0  0  0  0  0  0  0  0
    5.4078   -1.6970    0.0000 H   0  0  0  0  0  0  0  0  0  0  0  0
    5.4078    1.0911    0.0000 H   0  0  0  0  0  0  0  0  0  0  0  0
    2.0000    0.5070    0.0000 H   0  0  0  0  0  0  0  0  0  0  0  0
    6.9888   -1.7059    0.0000 H   0  0  0  0  0  0  0  0  0  0  0  0
    6.9888    1.1000    0.0000 H   0  0  0  0  0  0  0  0  0  0  0  0
    8.6088   -1.7059    0.0000 H   0  0  0  0  0  0  0  0  0  0  0  0
    8.6088    1.1000    0.0000 H   0  0  0  0  0  0  0  0  0  0  0  0
  1 11  2  0  0  0  0
  2  5  1  0  0  0  0
  2  9  1  0  0  0  0
  2 21  1  0  0  0  0
  3  8  1  0  0  0  0
  3 11  1  0  0  0  0
  3 23  1  0  0  0  0
  4 15  2  0  0  0  0
  4 16  1  0  0  0  0
  5  6  1  0  0  0  0
  5  7  2  0  0  0  0
  6  8  1  0  0  0  0
  6 17  1  0  0  0  0
  6 18  1  0  0  0  0
  7 10  1  0  0  0  0
  7 11  1  0  0  0  0
  8 19  1  0  0  0  0
  8 20  1  0  0  0  0
  9 10  2  0  0  0  0
  9 12  1  0  0  0  0
 10 22  1  0  0  0  0
 12 13  2  0  0  0  0
 12 14  1  0  0  0  0
 13 15  1  0  0  0  0
 13 24  1  0  0  0  0
 14 16  2  0  0  0  0
 14 25  1  0  0  0  0
 15 26  1  0  0  0  0
 16 27  1  0  0  0  0
M  END
> <PUBCHEM_COMPOUND_CID>
11715767

> <PUBCHEM_COMPOUND_CANONICALIZED>
1

> <PUBCHEM_CACTVS_COMPLEXITY>
275

> <PUBCHEM_CACTVS_HBOND_ACCEPTOR>
2

> <PUBCHEM_CACTVS_HBOND_DONOR>
2

> <PUBCHEM_CACTVS_ROTATABLE_BOND>
1

> <PUBCHEM_CACTVS_SUBSKEYS>
AAADccBzIAAAAAAAAAAAAAAAAAAAAWAAAAAsWAAAAAAAAFgB4AAAHgAQAAAADAjBngQ8gJLJkACoAzV3VACCgCA1AiAI2aE4ZNgIIPrA1ZGEIYhglgDIycccicCOAAAAAAAAAAAAAAAAAAAAAAAAAAAAAA==

> <PUBCHEM_IUPAC_OPENEYE_NAME>
2-(4-pyridyl)-1,5,6,7-tetrahydropyrrolo[3,2-c]pyridin-4-one

> <PUBCHEM_IUPAC_CAS_NAME>
2-pyridin-4-yl-1,5,6,7-tetrahydropyrrolo[3,2-c]pyridin-4-one

> <PUBCHEM_IUPAC_NAME_MARKUP>
2-pyridin-4-yl-1,5,6,7-tetrahydropyrrolo[3,2-c]pyridin-4-one

> <PUBCHEM_IUPAC_NAME>
2-pyridin-4-yl-1,5,6,7-tetrahydropyrrolo[3,2-c]pyridin-4-one

> <PUBCHEM_IUPAC_SYSTEMATIC_NAME>
2-pyridin-4-yl-1,5,6,7-tetrahydropyrrolo[3,2-c]pyridin-4-one

> <PUBCHEM_IUPAC_TRADITIONAL_NAME>
2-(4-pyridyl)-1,5,6,7-tetrahydropyrrolo[3,2-c]pyridin-4-one

> <PUBCHEM_IUPAC_INCHI>
InChI=1S/C12H11N3O/c16-12-9-7-11(8-1-4-13-5-2-8)15-10(9)3-6-14-12/h1-2,4-5,7,15H,3,6H2,(H,14,16)

> <PUBCHEM_IUPAC_INCHIKEY>
DKXHSOUZPMHNIZ-UHFFFAOYSA-N

> <PUBCHEM_XLOGP3_AA>
0.6

> <PUBCHEM_EXACT_MASS>
213.090211983

> <PUBCHEM_MOLECULAR_FORMULA>
C12H11N3O

> <PUBCHEM_MOLECULAR_WEIGHT>
213.23

> <PUBCHEM_SMILES>
C1CNC(=O)C2=C1NC(=C2)C3=CC=NC=C3

> <PUBCHEM_OPENEYE_CAN_SMILES>
C1CNC(=O)C2=C1NC(=C2)C3=CC=NC=C3

> <PUBCHEM_OPENEYE_ISO_SMILES>
C1CNC(=O)C2=C1NC(=C2)C3=CC=NC=C3

> <PUBCHEM_CACTVS_TPSA>
57.8

> <PUBCHEM_MONOISOTOPIC_WEIGHT>
213.090211983

> <PUBCHEM_TOTAL_CHARGE>
0

> <PUBCHEM_HEAVY_ATOM_COUNT>
16

> <PUBCHEM_ATOM_DEF_STEREO_COUNT>
0

> <PUBCHEM_ATOM_UDEF_STEREO_COUNT>
0

> <PUBCHEM_BOND_DEF_STEREO_COUNT>
0

> <PUBCHEM_BOND_UDEF_STEREO_COUNT>
0

> <PUBCHEM_ISOTOPIC_ATOM_COUNT>
0

> <PUBCHEM_COMPONENT_COUNT>
1

> <PUBCHEM_CACTVS_TAUTO_COUNT>
-1

> <PUBCHEM_COORDINATE_TYPE>
1
5
255

> <PUBCHEM_BONDANNOTATIONS>
12  13  8
12  14  8
13  15  8
14  16  8
2  5  8
2  9  8
4  15  8
4  16  8
5  7  8
7  10  8
9  10  8

$$$$
