44346053
  -OEChem-03192523282D

 61 65  0     0  0  0  0  0  0999 V2000
    8.4766    0.5872    0.0000 F   0  0  0  0  0  0  0  0  0  0  0  0
    2.6200   -2.1224    0.0000 O   0  0  0  0  0  0  0  0  0  0  0  0
    3.2133   -1.2089    0.0000 O   0  0  0  0  0  0  0  0  0  0  0  0
    5.3654    2.6249    0.0000 N   0  0  0  0  0  0  0  0  0  0  0  0
    3.1200   -4.9884    0.0000 N   0  0  0  0  0  0  0  0  0  0  0  0
    4.6145   -2.0179    0.0000 N   0  0  0  0  0  0  0  0  0  0  0  0
    3.6428    2.4438    0.0000 N   0  0  0  0  0  0  0  0  0  0  0  0
    5.2609    3.6194    0.0000 C   0  0  0  0  0  0  0  0  0  0  0  0
    3.1200   -2.9884    0.0000 C   0  0  0  0  0  0  0  0  0  0  0  0
    6.0699    4.2072    0.0000 C   0  0  0  0  0  0  0  0  0  0  0  0
    4.3473    4.0261    0.0000 C   0  0  0  0  0  0  0  0  0  0  0  0
    5.9654    5.2017    0.0000 C   0  0  0  0  0  0  0  0  0  0  0  0
    4.2428    5.0207    0.0000 C   0  0  0  0  0  0  0  0  0  0  0  0
    5.0518    5.6084    0.0000 C   0  0  0  0  0  0  0  0  0  0  0  0
    3.9860   -3.4884    0.0000 C   0  0  0  0  0  0  0  0  0  0  0  0
    2.2540   -3.4884    0.0000 C   0  0  0  0  0  0  0  0  0  0  0  0
    3.9860   -4.4884    0.0000 C   0  0  0  0  0  0  0  0  0  0  0  0
    2.2540   -4.4884    0.0000 C   0  0  0  0  0  0  0  0  0  0  0  0
    3.6200   -2.1224    0.0000 C   0  0  0  0  0  0  0  0  0  0  0  0
    4.5564    2.0371    0.0000 C   0  0  0  0  0  0  0  0  0  0  0  0
    3.9564   -0.5397    0.0000 C   0  0  0  0  0  0  0  0  0  0  0  0
    4.8224   -1.0397    0.0000 C   0  0  0  0  0  0  0  0  0  0  0  0
    3.8519    0.4548    0.0000 C   0  0  0  0  0  0  0  0  0  0  0  0
    4.6609    1.0426    0.0000 C   0  0  0  0  0  0  0  0  0  0  0  0
    5.7360   -0.6330    0.0000 C   0  0  0  0  0  0  0  0  0  0  0  0
    2.9383    0.8615    0.0000 C   0  0  0  0  0  0  0  0  0  0  0  0
    2.8338    1.8560    0.0000 C   0  0  0  0  0  0  0  0  0  0  0  0
    6.5450   -1.2208    0.0000 C   0  0  0  0  0  0  0  0  0  0  0  0
    5.8405    0.3615    0.0000 C   0  0  0  0  0  0  0  0  0  0  0  0
    7.4585   -0.8141    0.0000 C   0  0  0  0  0  0  0  0  0  0  0  0
    6.7540    0.7683    0.0000 C   0  0  0  0  0  0  0  0  0  0  0  0
    7.5631    0.1805    0.0000 C   0  0  0  0  0  0  0  0  0  0  0  0
    5.8272    3.3672    0.0000 H   0  0  0  0  0  0  0  0  0  0  0  0
    6.3417    3.6499    0.0000 H   0  0  0  0  0  0  0  0  0  0  0  0
    6.6659    4.3781    0.0000 H   0  0  0  0  0  0  0  0  0  0  0  0
    3.7288    4.0694    0.0000 H   0  0  0  0  0  0  0  0  0  0  0  0
    4.1973    3.4246    0.0000 H   0  0  0  0  0  0  0  0  0  0  0  0
    6.5838    5.1584    0.0000 H   0  0  0  0  0  0  0  0  0  0  0  0
    6.1153    5.8033    0.0000 H   0  0  0  0  0  0  0  0  0  0  0  0
    3.9710    5.5779    0.0000 H   0  0  0  0  0  0  0  0  0  0  0  0
    3.6468    4.8498    0.0000 H   0  0  0  0  0  0  0  0  0  0  0  0
    5.3985    6.1224    0.0000 H   0  0  0  0  0  0  0  0  0  0  0  0
    4.6058    6.0391    0.0000 H   0  0  0  0  0  0  0  0  0  0  0  0
    4.5966   -3.5961    0.0000 H   0  0  0  0  0  0  0  0  0  0  0  0
    4.1981   -2.9058    0.0000 H   0  0  0  0  0  0  0  0  0  0  0  0
    2.0419   -2.9058    0.0000 H   0  0  0  0  0  0  0  0  0  0  0  0
    1.6434   -3.5961    0.0000 H   0  0  0  0  0  0  0  0  0  0  0  0
    4.1981   -5.0710    0.0000 H   0  0  0  0  0  0  0  0  0  0  0  0
    4.5966   -4.3808    0.0000 H   0  0  0  0  0  0  0  0  0  0  0  0
    1.6434   -4.3808    0.0000 H   0  0  0  0  0  0  0  0  0  0  0  0
    2.0419   -5.0710    0.0000 H   0  0  0  0  0  0  0  0  0  0  0  0
    5.9318    2.3727    0.0000 H   0  0  0  0  0  0  0  0  0  0  0  0
    3.1200   -5.6084    0.0000 H   0  0  0  0  0  0  0  0  0  0  0  0
    2.0000   -2.1224    0.0000 H   0  0  0  0  0  0  0  0  0  0  0  0
    5.2273    0.7904    0.0000 H   0  0  0  0  0  0  0  0  0  0  0  0
    2.4367    0.4971    0.0000 H   0  0  0  0  0  0  0  0  0  0  0  0
    2.2674    2.1082    0.0000 H   0  0  0  0  0  0  0  0  0  0  0  0
    6.4802   -1.8374    0.0000 H   0  0  0  0  0  0  0  0  0  0  0  0
    5.3389    0.7259    0.0000 H   0  0  0  0  0  0  0  0  0  0  0  0
    7.9601   -1.1785    0.0000 H   0  0  0  0  0  0  0  0  0  0  0  0
    6.8189    1.3849    0.0000 H   0  0  0  0  0  0  0  0  0  0  0  0
  1 32  1  0  0  0  0
  2  9  1  0  0  0  0
  2 54  1  0  0  0  0
  3 19  1  0  0  0  0
  3 21  1  0  0  0  0
  4  8  1  0  0  0  0
  4 20  1  0  0  0  0
  4 52  1  0  0  0  0
  5 17  1  0  0  0  0
  5 18  1  0  0  0  0
  5 53  1  0  0  0  0
  6 19  2  0  0  0  0
  6 22  1  0  0  0  0
  7 20  2  0  0  0  0
  7 27  1  0  0  0  0
  8 10  1  0  0  0  0
  8 11  1  0  0  0  0
  8 33  1  0  0  0  0
  9 15  1  0  0  0  0
  9 16  1  0  0  0  0
  9 19  1  0  0  0  0
 10 12  1  0  0  0  0
 10 34  1  0  0  0  0
 10 35  1  0  0  0  0
 11 13  1  0  0  0  0
 11 36  1  0  0  0  0
 11 37  1  0  0  0  0
 12 14  1  0  0  0  0
 12 38  1  0  0  0  0
 12 39  1  0  0  0  0
 13 14  1  0  0  0  0
 13 40  1  0  0  0  0
 13 41  1  0  0  0  0
 14 42  1  0  0  0  0
 14 43  1  0  0  0  0
 15 17  1  0  0  0  0
 15 44  1  0  0  0  0
 15 45  1  0  0  0  0
 16 18  1  0  0  0  0
 16 46  1  0  0  0  0
 16 47  1  0  0  0  0
 17 48  1  0  0  0  0
 17 49  1  0  0  0  0
 18 50  1  0  0  0  0
 18 51  1  0  0  0  0
 20 24  1  0  0  0  0
 21 22  2  0  0  0  0
 21 23  1  0  0  0  0
 22 25  1  0  0  0  0
 23 24  2  0  0  0  0
 23 26  1  0  0  0  0
 24 55  1  0  0  0  0
 25 28  2  0  0  0  0
 25 29  1  0  0  0  0
 26 27  2  0  0  0  0
 26 56  1  0  0  0  0
 27 57  1  0  0  0  0
 28 30  1  0  0  0  0
 28 58  1  0  0  0  0
 29 31  2  0  0  0  0
 29 59  1  0  0  0  0
 30 32  2  0  0  0  0
 30 60  1  0  0  0  0
 31 32  1  0  0  0  0
 31 61  1  0  0  0  0
M  END
> <PUBCHEM_COMPOUND_CID>
44346053

> <PUBCHEM_COMPOUND_CANONICALIZED>
1

> <PUBCHEM_CACTVS_COMPLEXITY>
590

> <PUBCHEM_CACTVS_HBOND_ACCEPTOR>
7

> <PUBCHEM_CACTVS_HBOND_DONOR>
3

> <PUBCHEM_CACTVS_ROTATABLE_BOND>
5

> <PUBCHEM_CACTVS_SUBSKEYS>
AAADceB7sQAAAAAAAAAAAAAAAAAAAWAAAAA8eIEAAAAAAAAB8AAAHwAQCAAADGzBngw9tJLIFkCoA7d3dAaCiCk/YiAJ2KH9bNiPJvLEvbuPeSju1APb6ae8yOCOAAAAAAAAAAAAAAAAAAAAAAAAAAAAAA==

> <PUBCHEM_IUPAC_OPENEYE_NAME>
4-[5-[2-(cyclohexylamino)-4-pyridyl]-4-(4-fluorophenyl)oxazol-2-yl]piperidin-4-ol

> <PUBCHEM_IUPAC_CAS_NAME>
4-[5-[2-(cyclohexylamino)-4-pyridinyl]-4-(4-fluorophenyl)-2-oxazolyl]-4-piperidinol

> <PUBCHEM_IUPAC_NAME_MARKUP>
4-[5-[2-(cyclohexylamino)pyridin-4-yl]-4-(4-fluorophenyl)-1,3-oxazol-2-yl]piperidin-4-ol

> <PUBCHEM_IUPAC_NAME>
4-[5-[2-(cyclohexylamino)pyridin-4-yl]-4-(4-fluorophenyl)-1,3-oxazol-2-yl]piperidin-4-ol

> <PUBCHEM_IUPAC_SYSTEMATIC_NAME>
4-[5-[2-(cyclohexylamino)pyridin-4-yl]-4-(4-fluorophenyl)-1,3-oxazol-2-yl]piperidin-4-ol

> <PUBCHEM_IUPAC_TRADITIONAL_NAME>
4-[5-[2-(cyclohexylamino)-4-pyridyl]-4-(4-fluorophenyl)oxazol-2-yl]piperidin-4-ol

> <PUBCHEM_IUPAC_INCHI>
InChI=1S/C25H29FN4O2/c26-19-8-6-17(7-9-19)22-23(32-24(30-22)25(31)11-14-27-15-12-25)18-10-13-28-21(16-18)29-20-4-2-1-3-5-20/h6-10,13,16,20,27,31H,1-5,11-12,14-15H2,(H,28,29)

> <PUBCHEM_IUPAC_INCHIKEY>
SAMLUEXYGUANPP-UHFFFAOYSA-N

> <PUBCHEM_XLOGP3_AA>
3.9

> <PUBCHEM_EXACT_MASS>
436.22745434

> <PUBCHEM_MOLECULAR_FORMULA>
C25H29FN4O2

> <PUBCHEM_MOLECULAR_WEIGHT>
436.5

> <PUBCHEM_SMILES>
C1CCC(CC1)NC2=NC=CC(=C2)C3=C(N=C(O3)C4(CCNCC4)O)C5=CC=C(C=C5)F

> <PUBCHEM_OPENEYE_CAN_SMILES>
C1CCC(CC1)NC2=NC=CC(=C2)C3=C(N=C(O3)C4(CCNCC4)O)C5=CC=C(C=C5)F

> <PUBCHEM_OPENEYE_ISO_SMILES>
C1CCC(CC1)NC2=NC=CC(=C2)C3=C(N=C(O3)C4(CCNCC4)O)C5=CC=C(C=C5)F

> <PUBCHEM_CACTVS_TPSA>
83.2

> <PUBCHEM_MONOISOTOPIC_WEIGHT>
436.22745434

> <PUBCHEM_TOTAL_CHARGE>
0

> <PUBCHEM_HEAVY_ATOM_COUNT>
32

> <PUBCHEM_ATOM_DEF_STEREO_COUNT>
0

> <PUBCHEM_ATOM_UDEF_STEREO_COUNT>
0

> <PUBCHEM_BOND_DEF_STEREO_COUNT>
0

> <PUBCHEM_BOND_UDEF_STEREO_COUNT>
0

> <PUBCHEM_ISOTOPIC_ATOM_COUNT>
0

> <PUBCHEM_COMPONENT_COUNT>
1

> <PUBCHEM_CACTVS_TAUTO_COUNT>
-1

> <PUBCHEM_COORDINATE_TYPE>
1
5
255

> <PUBCHEM_BONDANNOTATIONS>
20  24  8
21  22  8
23  24  8
23  26  8
25  28  8
25  29  8
26  27  8
28  30  8
29  31  8
3  19  8
3  21  8
30  32  8
31  32  8
6  19  8
6  22  8
7  20  8
7  27  8

$$$$
