11292807
  -OEChem-03202503372D

 46 49  0     0  0  0  0  0  0999 V2000
    2.0000    0.9516    0.0000 F   0  0  0  0  0  0  0  0  0  0  0  0
    3.0000    1.9516    0.0000 F   0  0  0  0  0  0  0  0  0  0  0  0
    4.0000    0.9516    0.0000 F   0  0  0  0  0  0  0  0  0  0  0  0
    5.5981   -0.5484    0.0000 O   0  0  0  0  0  0  0  0  0  0  0  0
   12.6065   -0.3531    0.0000 N   0  0  0  0  0  0  0  0  0  0  0  0
   13.1901    0.4516    0.0000 N   0  0  0  0  0  0  0  0  0  0  0  0
    6.4641   -2.0484    0.0000 N   0  0  0  0  0  0  0  0  0  0  0  0
    4.7320   -2.0484    0.0000 N   0  0  0  0  0  0  0  0  0  0  0  0
   12.9171    2.2069    0.0000 N   0  0  0  0  0  0  0  0  0  0  0  0
    9.9282   -0.0484    0.0000 C   0  0  0  0  0  0  0  0  0  0  0  0
   11.6603   -0.0484    0.0000 C   0  0  0  0  0  0  0  0  0  0  0  0
   11.6603    0.9516    0.0000 C   0  0  0  0  0  0  0  0  0  0  0  0
    9.0622   -0.5484    0.0000 C   0  0  0  0  0  0  0  0  0  0  0  0
   10.7942   -0.5484    0.0000 C   0  0  0  0  0  0  0  0  0  0  0  0
    9.9282    0.9516    0.0000 C   0  0  0  0  0  0  0  0  0  0  0  0
   10.7942    1.4516    0.0000 C   0  0  0  0  0  0  0  0  0  0  0  0
   12.6065    1.2564    0.0000 C   0  0  0  0  0  0  0  0  0  0  0  0
    9.0622   -1.5484    0.0000 C   0  0  0  0  0  0  0  0  0  0  0  0
    8.1962   -0.0484    0.0000 C   0  0  0  0  0  0  0  0  0  0  0  0
    7.3301   -1.5484    0.0000 C   0  0  0  0  0  0  0  0  0  0  0  0
    8.1962   -2.0484    0.0000 C   0  0  0  0  0  0  0  0  0  0  0  0
    7.3301   -0.5484    0.0000 C   0  0  0  0  0  0  0  0  0  0  0  0
    3.8660   -1.5484    0.0000 C   0  0  0  0  0  0  0  0  0  0  0  0
    3.0000   -0.0484    0.0000 C   0  0  0  0  0  0  0  0  0  0  0  0
    3.8660   -0.5484    0.0000 C   0  0  0  0  0  0  0  0  0  0  0  0
    5.5981   -1.5484    0.0000 C   0  0  0  0  0  0  0  0  0  0  0  0
    3.0000   -2.0484    0.0000 C   0  0  0  0  0  0  0  0  0  0  0  0
    2.1340   -0.5484    0.0000 C   0  0  0  0  0  0  0  0  0  0  0  0
    2.1340   -1.5484    0.0000 C   0  0  0  0  0  0  0  0  0  0  0  0
    3.0000    0.9516    0.0000 C   0  0  0  0  0  0  0  0  0  0  0  0
   10.7942   -1.1684    0.0000 H   0  0  0  0  0  0  0  0  0  0  0  0
    9.3913    1.2616    0.0000 H   0  0  0  0  0  0  0  0  0  0  0  0
   10.7942    2.0716    0.0000 H   0  0  0  0  0  0  0  0  0  0  0  0
    9.5991   -1.8584    0.0000 H   0  0  0  0  0  0  0  0  0  0  0  0
    8.1962    0.5716    0.0000 H   0  0  0  0  0  0  0  0  0  0  0  0
   12.7991   -0.9424    0.0000 H   0  0  0  0  0  0  0  0  0  0  0  0
    8.1962   -2.6684    0.0000 H   0  0  0  0  0  0  0  0  0  0  0  0
    6.7932   -0.2384    0.0000 H   0  0  0  0  0  0  0  0  0  0  0  0
    6.4641   -2.6684    0.0000 H   0  0  0  0  0  0  0  0  0  0  0  0
    4.4030   -0.2384    0.0000 H   0  0  0  0  0  0  0  0  0  0  0  0
    4.7320   -2.6684    0.0000 H   0  0  0  0  0  0  0  0  0  0  0  0
   13.5238    2.3348    0.0000 H   0  0  0  0  0  0  0  0  0  0  0  0
   12.5031    2.6684    0.0000 H   0  0  0  0  0  0  0  0  0  0  0  0
    3.0000   -2.6684    0.0000 H   0  0  0  0  0  0  0  0  0  0  0  0
    1.5970   -0.2384    0.0000 H   0  0  0  0  0  0  0  0  0  0  0  0
    1.5970   -1.8584    0.0000 H   0  0  0  0  0  0  0  0  0  0  0  0
  1 30  1  0  0  0  0
  2 30  1  0  0  0  0
  3 30  1  0  0  0  0
  4 26  2  0  0  0  0
  5  6  1  0  0  0  0
  5 11  1  0  0  0  0
  5 36  1  0  0  0  0
  6 17  2  0  0  0  0
  7 20  1  0  0  0  0
  7 26  1  0  0  0  0
  7 39  1  0  0  0  0
  8 23  1  0  0  0  0
  8 26  1  0  0  0  0
  8 41  1  0  0  0  0
  9 17  1  0  0  0  0
  9 42  1  0  0  0  0
  9 43  1  0  0  0  0
 10 13  1  0  0  0  0
 10 14  2  0  0  0  0
 10 15  1  0  0  0  0
 11 12  2  0  0  0  0
 11 14  1  0  0  0  0
 12 16  1  0  0  0  0
 12 17  1  0  0  0  0
 13 18  2  0  0  0  0
 13 19  1  0  0  0  0
 14 31  1  0  0  0  0
 15 16  2  0  0  0  0
 15 32  1  0  0  0  0
 16 33  1  0  0  0  0
 18 21  1  0  0  0  0
 18 34  1  0  0  0  0
 19 22  2  0  0  0  0
 19 35  1  0  0  0  0
 20 21  2  0  0  0  0
 20 22  1  0  0  0  0
 21 37  1  0  0  0  0
 22 38  1  0  0  0  0
 23 25  1  0  0  0  0
 23 27  2  0  0  0  0
 24 25  2  0  0  0  0
 24 28  1  0  0  0  0
 24 30  1  0  0  0  0
 25 40  1  0  0  0  0
 27 29  1  0  0  0  0
 27 44  1  0  0  0  0
 28 29  2  0  0  0  0
 28 45  1  0  0  0  0
 29 46  1  0  0  0  0
M  END
> <PUBCHEM_COMPOUND_CID>
11292807

> <PUBCHEM_COMPOUND_CANONICALIZED>
1

> <PUBCHEM_CACTVS_COMPLEXITY>
596

> <PUBCHEM_CACTVS_HBOND_ACCEPTOR>
6

> <PUBCHEM_CACTVS_HBOND_DONOR>
4

> <PUBCHEM_CACTVS_ROTATABLE_BOND>
3

> <PUBCHEM_CACTVS_SUBSKEYS>
AAADceB7oYAAAAAAAAAAAAAAAAAAAWAAAAAwYMAAAAAAAFgB9AAAHwAYAAAADAiBHhAx8PLjAACqAyZicACSBAIhAgAcuSAwZJiIIKLA0dGEpAh4nAJIyCcQgMAOyAAAQAACAACQAACAAAQAAAAAAAAAAA==

> <PUBCHEM_IUPAC_OPENEYE_NAME>
1-[4-(3-amino-1H-indazol-6-yl)phenyl]-3-[3-(trifluoromethyl)phenyl]urea

> <PUBCHEM_IUPAC_CAS_NAME>
1-[4-(3-amino-1H-indazol-6-yl)phenyl]-3-[3-(trifluoromethyl)phenyl]urea

> <PUBCHEM_IUPAC_NAME_MARKUP>
1-[4-(3-amino-1<I>H</I>-indazol-6-yl)phenyl]-3-[3-(trifluoromethyl)phenyl]urea

> <PUBCHEM_IUPAC_NAME>
1-[4-(3-amino-1H-indazol-6-yl)phenyl]-3-[3-(trifluoromethyl)phenyl]urea

> <PUBCHEM_IUPAC_SYSTEMATIC_NAME>
1-[4-(3-azanyl-1H-indazol-6-yl)phenyl]-3-[3-(trifluoromethyl)phenyl]urea

> <PUBCHEM_IUPAC_TRADITIONAL_NAME>
1-[4-(3-amino-1H-indazol-6-yl)phenyl]-3-[3-(trifluoromethyl)phenyl]urea

> <PUBCHEM_IUPAC_INCHI>
InChI=1S/C21H16F3N5O/c22-21(23,24)14-2-1-3-16(11-14)27-20(30)26-15-7-4-12(5-8-15)13-6-9-17-18(10-13)28-29-19(17)25/h1-11H,(H3,25,28,29)(H2,26,27,30)

> <PUBCHEM_IUPAC_INCHIKEY>
GALVWTFFXPRMQM-UHFFFAOYSA-N

> <PUBCHEM_XLOGP3_AA>
4.3

> <PUBCHEM_EXACT_MASS>
411.13069464

> <PUBCHEM_MOLECULAR_FORMULA>
C21H16F3N5O

> <PUBCHEM_MOLECULAR_WEIGHT>
411.4

> <PUBCHEM_SMILES>
C1=CC(=CC(=C1)NC(=O)NC2=CC=C(C=C2)C3=CC4=C(C=C3)C(=NN4)N)C(F)(F)F

> <PUBCHEM_OPENEYE_CAN_SMILES>
C1=CC(=CC(=C1)NC(=O)NC2=CC=C(C=C2)C3=CC4=C(C=C3)C(=NN4)N)C(F)(F)F

> <PUBCHEM_OPENEYE_ISO_SMILES>
C1=CC(=CC(=C1)NC(=O)NC2=CC=C(C=C2)C3=CC4=C(C=C3)C(=NN4)N)C(F)(F)F

> <PUBCHEM_CACTVS_TPSA>
95.8

> <PUBCHEM_MONOISOTOPIC_WEIGHT>
411.13069464

> <PUBCHEM_TOTAL_CHARGE>
0

> <PUBCHEM_HEAVY_ATOM_COUNT>
30

> <PUBCHEM_ATOM_DEF_STEREO_COUNT>
0

> <PUBCHEM_ATOM_UDEF_STEREO_COUNT>
0

> <PUBCHEM_BOND_DEF_STEREO_COUNT>
0

> <PUBCHEM_BOND_UDEF_STEREO_COUNT>
0

> <PUBCHEM_ISOTOPIC_ATOM_COUNT>
0

> <PUBCHEM_COMPONENT_COUNT>
1

> <PUBCHEM_CACTVS_TAUTO_COUNT>
-1

> <PUBCHEM_COORDINATE_TYPE>
1
5
255

> <PUBCHEM_BONDANNOTATIONS>
10  14  8
10  15  8
11  12  8
11  14  8
12  16  8
12  17  8
13  18  8
13  19  8
15  16  8
18  21  8
19  22  8
20  21  8
20  22  8
23  25  8
23  27  8
24  25  8
24  28  8
27  29  8
28  29  8
5  11  8
5  6  8
6  17  8

$$$$
