24905155
  -OEChem-03192523422D

 39 41  0     0  0  0  0  0  0999 V2000
    5.2531    3.9253    0.0000 O   0  0  0  0  0  0  0  0  0  0  0  0
    4.6783   -2.2305    0.0000 N   0  0  0  0  0  0  0  0  0  0  0  0
    5.2619   -1.4258    0.0000 N   0  0  0  0  0  0  0  0  0  0  0  0
    2.8660   -2.4258    0.0000 N   0  0  0  0  0  0  0  0  0  0  0  0
    2.0000   -0.9258    0.0000 N   0  0  0  0  0  0  0  0  0  0  0  0
    2.8660    0.5742    0.0000 N   0  0  0  0  0  0  0  0  0  0  0  0
    4.9889   -3.1810    0.0000 C   0  0  0  0  0  0  0  0  0  0  0  0
    3.7320   -1.9258    0.0000 C   0  0  0  0  0  0  0  0  0  0  0  0
    3.7320   -0.9258    0.0000 C   0  0  0  0  0  0  0  0  0  0  0  0
    4.6783   -0.6210    0.0000 C   0  0  0  0  0  0  0  0  0  0  0  0
    5.9674   -3.3872    0.0000 C   0  0  0  0  0  0  0  0  0  0  0  0
    4.3211   -3.9253    0.0000 C   0  0  0  0  0  0  0  0  0  0  0  0
    4.9889    0.3295    0.0000 C   0  0  0  0  0  0  0  0  0  0  0  0
    2.8660   -0.4258    0.0000 C   0  0  0  0  0  0  0  0  0  0  0  0
    4.3211    1.0738    0.0000 C   0  0  0  0  0  0  0  0  0  0  0  0
    5.9674    0.5357    0.0000 C   0  0  0  0  0  0  0  0  0  0  0  0
    5.6103    2.2305    0.0000 C   0  0  0  0  0  0  0  0  0  0  0  0
    4.6318    2.0243    0.0000 C   0  0  0  0  0  0  0  0  0  0  0  0
    6.2781    1.4862    0.0000 C   0  0  0  0  0  0  0  0  0  0  0  0
    2.0000   -1.9258    0.0000 C   0  0  0  0  0  0  0  0  0  0  0  0
    5.9209    3.1810    0.0000 C   0  0  0  0  0  0  0  0  0  0  0  0
    6.8994    3.3872    0.0000 C   0  0  0  0  0  0  0  0  0  0  0  0
    5.1815   -3.7704    0.0000 H   0  0  0  0  0  0  0  0  0  0  0  0
    5.8396   -3.9939    0.0000 H   0  0  0  0  0  0  0  0  0  0  0  0
    6.5741   -3.5151    0.0000 H   0  0  0  0  0  0  0  0  0  0  0  0
    6.0953   -2.7806    0.0000 H   0  0  0  0  0  0  0  0  0  0  0  0
    3.8596   -3.5113    0.0000 H   0  0  0  0  0  0  0  0  0  0  0  0
    3.9070   -4.3868    0.0000 H   0  0  0  0  0  0  0  0  0  0  0  0
    4.7826   -4.3394    0.0000 H   0  0  0  0  0  0  0  0  0  0  0  0
    3.7144    0.9459    0.0000 H   0  0  0  0  0  0  0  0  0  0  0  0
    6.3815    0.0742    0.0000 H   0  0  0  0  0  0  0  0  0  0  0  0
    4.2177    2.4858    0.0000 H   0  0  0  0  0  0  0  0  0  0  0  0
    6.8848    1.6141    0.0000 H   0  0  0  0  0  0  0  0  0  0  0  0
    1.4631   -2.2358    0.0000 H   0  0  0  0  0  0  0  0  0  0  0  0
    2.3291    0.8842    0.0000 H   0  0  0  0  0  0  0  0  0  0  0  0
    3.4030    0.8842    0.0000 H   0  0  0  0  0  0  0  0  0  0  0  0
    7.0273    2.7806    0.0000 H   0  0  0  0  0  0  0  0  0  0  0  0
    7.5061    3.5151    0.0000 H   0  0  0  0  0  0  0  0  0  0  0  0
    6.7716    3.9939    0.0000 H   0  0  0  0  0  0  0  0  0  0  0  0
  1 21  2  0  0  0  0
  2  3  1  0  0  0  0
  2  7  1  0  0  0  0
  2  8  1  0  0  0  0
  3 10  2  0  0  0  0
  4  8  2  0  0  0  0
  4 20  1  0  0  0  0
  5 14  1  0  0  0  0
  5 20  2  0  0  0  0
  6 14  1  0  0  0  0
  6 35  1  0  0  0  0
  6 36  1  0  0  0  0
  7 11  1  0  0  0  0
  7 12  1  0  0  0  0
  7 23  1  0  0  0  0
  8  9  1  0  0  0  0
  9 10  1  0  0  0  0
  9 14  2  0  0  0  0
 10 13  1  0  0  0  0
 11 24  1  0  0  0  0
 11 25  1  0  0  0  0
 11 26  1  0  0  0  0
 12 27  1  0  0  0  0
 12 28  1  0  0  0  0
 12 29  1  0  0  0  0
 13 15  2  0  0  0  0
 13 16  1  0  0  0  0
 15 18  1  0  0  0  0
 15 30  1  0  0  0  0
 16 19  2  0  0  0  0
 16 31  1  0  0  0  0
 17 18  2  0  0  0  0
 17 19  1  0  0  0  0
 17 21  1  0  0  0  0
 18 32  1  0  0  0  0
 19 33  1  0  0  0  0
 20 34  1  0  0  0  0
 21 22  1  0  0  0  0
 22 37  1  0  0  0  0
 22 38  1  0  0  0  0
 22 39  1  0  0  0  0
M  END
> <PUBCHEM_COMPOUND_CID>
24905155

> <PUBCHEM_COMPOUND_CANONICALIZED>
1

> <PUBCHEM_CACTVS_COMPLEXITY>
407

> <PUBCHEM_CACTVS_HBOND_ACCEPTOR>
5

> <PUBCHEM_CACTVS_HBOND_DONOR>
1

> <PUBCHEM_CACTVS_ROTATABLE_BOND>
3

> <PUBCHEM_CACTVS_SUBSKEYS>
AAADceB7oAAAAAAAAAAAAAAAAAAAAWAAAAA8QAAAAAAAAFgB/AAAHgAYAAAADCzBnwQ3sN5IEACqA6ZzZACShCs1gKAd2CEoRNiIKLLA3dGEpQhoiALIyacYiMCOQAAAAAAAAACAAAAAAAAAAAAAAAAAAA==

> <PUBCHEM_IUPAC_OPENEYE_NAME>
1-[4-(4-amino-1-isopropyl-pyrazolo[3,4-d]pyrimidin-3-yl)phenyl]ethanone

> <PUBCHEM_IUPAC_CAS_NAME>
1-[4-(4-amino-1-propan-2-yl-3-pyrazolo[3,4-d]pyrimidinyl)phenyl]ethanone

> <PUBCHEM_IUPAC_NAME_MARKUP>
1-[4-(4-amino-1-propan-2-ylpyrazolo[3,4-d]pyrimidin-3-yl)phenyl]ethanone

> <PUBCHEM_IUPAC_NAME>
1-[4-(4-amino-1-propan-2-ylpyrazolo[3,4-d]pyrimidin-3-yl)phenyl]ethanone

> <PUBCHEM_IUPAC_SYSTEMATIC_NAME>
1-[4-(4-azanyl-1-propan-2-yl-pyrazolo[3,4-d]pyrimidin-3-yl)phenyl]ethanone

> <PUBCHEM_IUPAC_TRADITIONAL_NAME>
1-[4-(4-amino-1-isopropyl-pyrazolo[3,4-d]pyrimidin-3-yl)phenyl]ethanone

> <PUBCHEM_IUPAC_INCHI>
InChI=1S/C16H17N5O/c1-9(2)21-16-13(15(17)18-8-19-16)14(20-21)12-6-4-11(5-7-12)10(3)22/h4-9H,1-3H3,(H2,17,18,19)

> <PUBCHEM_IUPAC_INCHIKEY>
GZMVQSNFLJUEMM-UHFFFAOYSA-N

> <PUBCHEM_XLOGP3_AA>
1.9

> <PUBCHEM_EXACT_MASS>
295.14331018

> <PUBCHEM_MOLECULAR_FORMULA>
C16H17N5O

> <PUBCHEM_MOLECULAR_WEIGHT>
295.34

> <PUBCHEM_SMILES>
CC(C)N1C2=NC=NC(=C2C(=N1)C3=CC=C(C=C3)C(=O)C)N

> <PUBCHEM_OPENEYE_CAN_SMILES>
CC(C)N1C2=NC=NC(=C2C(=N1)C3=CC=C(C=C3)C(=O)C)N

> <PUBCHEM_OPENEYE_ISO_SMILES>
CC(C)N1C2=NC=NC(=C2C(=N1)C3=CC=C(C=C3)C(=O)C)N

> <PUBCHEM_CACTVS_TPSA>
86.7

> <PUBCHEM_MONOISOTOPIC_WEIGHT>
295.14331018

> <PUBCHEM_TOTAL_CHARGE>
0

> <PUBCHEM_HEAVY_ATOM_COUNT>
22

> <PUBCHEM_ATOM_DEF_STEREO_COUNT>
0

> <PUBCHEM_ATOM_UDEF_STEREO_COUNT>
0

> <PUBCHEM_BOND_DEF_STEREO_COUNT>
0

> <PUBCHEM_BOND_UDEF_STEREO_COUNT>
0

> <PUBCHEM_ISOTOPIC_ATOM_COUNT>
0

> <PUBCHEM_COMPONENT_COUNT>
1

> <PUBCHEM_CACTVS_TAUTO_COUNT>
-1

> <PUBCHEM_COORDINATE_TYPE>
1
5
255

> <PUBCHEM_BONDANNOTATIONS>
13  15  8
13  16  8
15  18  8
16  19  8
17  18  8
17  19  8
2  3  8
2  8  8
3  10  8
4  20  8
4  8  8
5  14  8
5  20  8
8  9  8
9  10  8
9  14  8

$$$$
