71552942
  -OEChem-03202504542D

 62 65  0     0  0  0  0  0  0999 V2000
   11.3769   -3.8512    0.0000 Cl  0  0  0  0  0  0  0  0  0  0  0  0
   14.8410   -1.8512    0.0000 Cl  0  0  0  0  0  0  0  0  0  0  0  0
    2.5000   -0.5536    0.0000 O   0  0  0  0  0  0  0  0  0  0  0  0
    7.9128    2.1488    0.0000 O   0  0  0  0  0  0  0  0  0  0  0  0
    4.2213   -1.0149    0.0000 O   0  0  0  0  0  0  0  0  0  0  0  0
    9.6448    2.1488    0.0000 N   0  0  0  0  0  0  0  0  0  0  0  0
   10.5109    0.6488    0.0000 N   0  0  0  0  0  0  0  0  0  0  0  0
    3.5827    0.6488    0.0000 N   0  0  0  0  0  0  0  0  0  0  0  0
    7.0468    0.6488    0.0000 N   0  0  0  0  0  0  0  0  0  0  0  0
    9.6448   -0.8512    0.0000 N   0  0  0  0  0  0  0  0  0  0  0  0
   11.3769   -0.8512    0.0000 N   0  0  0  0  0  0  0  0  0  0  0  0
   10.5109    2.6488    0.0000 C   0  0  0  0  0  0  0  0  0  0  0  0
   11.4244    2.2420    0.0000 C   0  0  0  0  0  0  0  0  0  0  0  0
   10.6154    3.6433    0.0000 C   0  0  0  0  0  0  0  0  0  0  0  0
   12.0936    2.9852    0.0000 C   0  0  0  0  0  0  0  0  0  0  0  0
   11.5936    3.8512    0.0000 C   0  0  0  0  0  0  0  0  0  0  0  0
    9.6448    1.1488    0.0000 C   0  0  0  0  0  0  0  0  0  0  0  0
    8.7788    0.6488    0.0000 C   0  0  0  0  0  0  0  0  0  0  0  0
    4.4487    1.1488    0.0000 C   0  0  0  0  0  0  0  0  0  0  0  0
    5.3147    0.6488    0.0000 C   0  0  0  0  0  0  0  0  0  0  0  0
    7.9128    1.1488    0.0000 C   0  0  0  0  0  0  0  0  0  0  0  0
    6.1808    1.1488    0.0000 C   0  0  0  0  0  0  0  0  0  0  0  0
    2.6691    1.0555    0.0000 C   0  0  0  0  0  0  0  0  0  0  0  0
    8.7788   -0.3512    0.0000 C   0  0  0  0  0  0  0  0  0  0  0  0
   10.5109   -0.3512    0.0000 C   0  0  0  0  0  0  0  0  0  0  0  0
    2.0000    0.3124    0.0000 C   0  0  0  0  0  0  0  0  0  0  0  0
    3.4782   -0.3457    0.0000 C   0  0  0  0  0  0  0  0  0  0  0  0
   11.3769   -1.8512    0.0000 C   0  0  0  0  0  0  0  0  0  0  0  0
   12.2429   -2.3512    0.0000 C   0  0  0  0  0  0  0  0  0  0  0  0
   12.2429   -3.3512    0.0000 C   0  0  0  0  0  0  0  0  0  0  0  0
   13.1090   -1.8512    0.0000 C   0  0  0  0  0  0  0  0  0  0  0  0
   13.9750   -2.3512    0.0000 C   0  0  0  0  0  0  0  0  0  0  0  0
   13.1090   -3.8512    0.0000 C   0  0  0  0  0  0  0  0  0  0  0  0
   13.9750   -3.3512    0.0000 C   0  0  0  0  0  0  0  0  0  0  0  0
   10.5433    2.0296    0.0000 H   0  0  0  0  0  0  0  0  0  0  0  0
   11.1144    1.7051    0.0000 H   0  0  0  0  0  0  0  0  0  0  0  0
   11.9260    1.8776    0.0000 H   0  0  0  0  0  0  0  0  0  0  0  0
   10.5506    4.2599    0.0000 H   0  0  0  0  0  0  0  0  0  0  0  0
    9.9954    3.6433    0.0000 H   0  0  0  0  0  0  0  0  0  0  0  0
   12.5084    2.5244    0.0000 H   0  0  0  0  0  0  0  0  0  0  0  0
   12.5951    3.3496    0.0000 H   0  0  0  0  0  0  0  0  0  0  0  0
   12.1600    4.1034    0.0000 H   0  0  0  0  0  0  0  0  0  0  0  0
   11.4020    4.4409    0.0000 H   0  0  0  0  0  0  0  0  0  0  0  0
    9.1079    2.4588    0.0000 H   0  0  0  0  0  0  0  0  0  0  0  0
    4.8472    1.6237    0.0000 H   0  0  0  0  0  0  0  0  0  0  0  0
    4.0502    1.6237    0.0000 H   0  0  0  0  0  0  0  0  0  0  0  0
    4.9162    0.1738    0.0000 H   0  0  0  0  0  0  0  0  0  0  0  0
    5.7133    0.1738    0.0000 H   0  0  0  0  0  0  0  0  0  0  0  0
    6.5793    1.6237    0.0000 H   0  0  0  0  0  0  0  0  0  0  0  0
    5.7822    1.6237    0.0000 H   0  0  0  0  0  0  0  0  0  0  0  0
    2.9791    1.5925    0.0000 H   0  0  0  0  0  0  0  0  0  0  0  0
    2.1675    1.4200    0.0000 H   0  0  0  0  0  0  0  0  0  0  0  0
    8.2419   -0.6612    0.0000 H   0  0  0  0  0  0  0  0  0  0  0  0
    7.0468    0.0288    0.0000 H   0  0  0  0  0  0  0  0  0  0  0  0
    1.5851    0.7731    0.0000 H   0  0  0  0  0  0  0  0  0  0  0  0
    1.4984   -0.0521    0.0000 H   0  0  0  0  0  0  0  0  0  0  0  0
   11.9138   -0.5412    0.0000 H   0  0  0  0  0  0  0  0  0  0  0  0
   10.7663   -1.7436    0.0000 H   0  0  0  0  0  0  0  0  0  0  0  0
   11.1649   -2.4338    0.0000 H   0  0  0  0  0  0  0  0  0  0  0  0
   13.1090   -1.2312    0.0000 H   0  0  0  0  0  0  0  0  0  0  0  0
   13.1090   -4.4712    0.0000 H   0  0  0  0  0  0  0  0  0  0  0  0
   14.5119   -3.6612    0.0000 H   0  0  0  0  0  0  0  0  0  0  0  0
  1 30  1  0  0  0  0
  2 32  1  0  0  0  0
  3 26  1  0  0  0  0
  3 27  1  0  0  0  0
  4 21  2  0  0  0  0
  5 27  2  0  0  0  0
  6 12  1  0  0  0  0
  6 17  1  0  0  0  0
  6 44  1  0  0  0  0
  7 17  2  0  0  0  0
  7 25  1  0  0  0  0
  8 19  1  0  0  0  0
  8 23  1  0  0  0  0
  8 27  1  0  0  0  0
  9 21  1  0  0  0  0
  9 22  1  0  0  0  0
  9 54  1  0  0  0  0
 10 24  1  0  0  0  0
 10 25  2  0  0  0  0
 11 25  1  0  0  0  0
 11 28  1  0  0  0  0
 11 57  1  0  0  0  0
 12 13  1  0  0  0  0
 12 14  1  0  0  0  0
 12 35  1  0  0  0  0
 13 15  1  0  0  0  0
 13 36  1  0  0  0  0
 13 37  1  0  0  0  0
 14 16  1  0  0  0  0
 14 38  1  0  0  0  0
 14 39  1  0  0  0  0
 15 16  1  0  0  0  0
 15 40  1  0  0  0  0
 15 41  1  0  0  0  0
 16 42  1  0  0  0  0
 16 43  1  0  0  0  0
 17 18  1  0  0  0  0
 18 21  1  0  0  0  0
 18 24  2  0  0  0  0
 19 20  1  0  0  0  0
 19 45  1  0  0  0  0
 19 46  1  0  0  0  0
 20 22  1  0  0  0  0
 20 47  1  0  0  0  0
 20 48  1  0  0  0  0
 22 49  1  0  0  0  0
 22 50  1  0  0  0  0
 23 26  1  0  0  0  0
 23 51  1  0  0  0  0
 23 52  1  0  0  0  0
 24 53  1  0  0  0  0
 26 55  1  0  0  0  0
 26 56  1  0  0  0  0
 28 29  1  0  0  0  0
 28 58  1  0  0  0  0
 28 59  1  0  0  0  0
 29 30  2  0  0  0  0
 29 31  1  0  0  0  0
 30 33  1  0  0  0  0
 31 32  2  0  0  0  0
 31 60  1  0  0  0  0
 32 34  1  0  0  0  0
 33 34  2  0  0  0  0
 33 61  1  0  0  0  0
 34 62  1  0  0  0  0
M  END
> <PUBCHEM_COMPOUND_CID>
71552942

> <PUBCHEM_COMPOUND_CANONICALIZED>
1

> <PUBCHEM_CACTVS_COMPLEXITY>
683

> <PUBCHEM_CACTVS_HBOND_ACCEPTOR>
7

> <PUBCHEM_CACTVS_HBOND_DONOR>
3

> <PUBCHEM_CACTVS_ROTATABLE_BOND>
10

> <PUBCHEM_CACTVS_SUBSKEYS>
AAADceB7sAAGAAAAAAAAAAAAAAAAAeIAAAA8QAAAAAAAAAABwAAAHgIQAAAADCrhmiY9uJfIFACoAjN3fACCgCk1BaAJ2KEoRtiKKKrB21GNJIholgLYiOcQgAAOAAAQIAABAAAAACBAAAIAAAAAAAAAAA==

> <PUBCHEM_IUPAC_OPENEYE_NAME>
4-(cyclopentylamino)-2-[(2,5-dichlorophenyl)methylamino]-N-[3-(2-oxooxazolidin-3-yl)propyl]pyrimidine-5-carboxamide

> <PUBCHEM_IUPAC_CAS_NAME>
4-(cyclopentylamino)-2-[(2,5-dichlorophenyl)methylamino]-N-[3-(2-oxo-3-oxazolidinyl)propyl]-5-pyrimidinecarboxamide

> <PUBCHEM_IUPAC_NAME_MARKUP>
4-(cyclopentylamino)-2-[(2,5-dichlorophenyl)methylamino]-<I>N</I>-[3-(2-oxo-1,3-oxazolidin-3-yl)propyl]pyrimidine-5-carboxamide

> <PUBCHEM_IUPAC_NAME>
4-(cyclopentylamino)-2-[(2,5-dichlorophenyl)methylamino]-N-[3-(2-oxo-1,3-oxazolidin-3-yl)propyl]pyrimidine-5-carboxamide

> <PUBCHEM_IUPAC_SYSTEMATIC_NAME>
2-[[2,5-bis(chloranyl)phenyl]methylamino]-4-(cyclopentylamino)-N-[3-(2-oxidanylidene-1,3-oxazolidin-3-yl)propyl]pyrimidine-5-carboxamide

> <PUBCHEM_IUPAC_TRADITIONAL_NAME>
4-(cyclopentylamino)-2-[(2,5-dichlorobenzyl)amino]-N-[3-(2-ketooxazolidin-3-yl)propyl]pyrimidine-5-carboxamide

> <PUBCHEM_IUPAC_INCHI>
InChI=1S/C23H28Cl2N6O3/c24-16-6-7-19(25)15(12-16)13-27-22-28-14-18(20(30-22)29-17-4-1-2-5-17)21(32)26-8-3-9-31-10-11-34-23(31)33/h6-7,12,14,17H,1-5,8-11,13H2,(H,26,32)(H2,27,28,29,30)

> <PUBCHEM_IUPAC_INCHIKEY>
XYASHXPUZJDWIO-UHFFFAOYSA-N

> <PUBCHEM_XLOGP3_AA>
4.7

> <PUBCHEM_EXACT_MASS>
506.1599942

> <PUBCHEM_MOLECULAR_FORMULA>
C23H28Cl2N6O3

> <PUBCHEM_MOLECULAR_WEIGHT>
507.4

> <PUBCHEM_SMILES>
C1CCC(C1)NC2=NC(=NC=C2C(=O)NCCCN3CCOC3=O)NCC4=C(C=CC(=C4)Cl)Cl

> <PUBCHEM_OPENEYE_CAN_SMILES>
C1CCC(C1)NC2=NC(=NC=C2C(=O)NCCCN3CCOC3=O)NCC4=C(C=CC(=C4)Cl)Cl

> <PUBCHEM_OPENEYE_ISO_SMILES>
C1CCC(C1)NC2=NC(=NC=C2C(=O)NCCCN3CCOC3=O)NCC4=C(C=CC(=C4)Cl)Cl

> <PUBCHEM_CACTVS_TPSA>
108

> <PUBCHEM_MONOISOTOPIC_WEIGHT>
506.1599942

> <PUBCHEM_TOTAL_CHARGE>
0

> <PUBCHEM_HEAVY_ATOM_COUNT>
34

> <PUBCHEM_ATOM_DEF_STEREO_COUNT>
0

> <PUBCHEM_ATOM_UDEF_STEREO_COUNT>
0

> <PUBCHEM_BOND_DEF_STEREO_COUNT>
0

> <PUBCHEM_BOND_UDEF_STEREO_COUNT>
0

> <PUBCHEM_ISOTOPIC_ATOM_COUNT>
0

> <PUBCHEM_COMPONENT_COUNT>
1

> <PUBCHEM_CACTVS_TAUTO_COUNT>
-1

> <PUBCHEM_COORDINATE_TYPE>
1
5
255

> <PUBCHEM_BONDANNOTATIONS>
10  24  8
10  25  8
17  18  8
18  24  8
29  30  8
29  31  8
30  33  8
31  32  8
32  34  8
33  34  8
7  17  8
7  25  8

$$$$
