20244403
  -OEChem-03202501252D

 18 19  0     0  0  0  0  0  0999 V2000
    4.6783   -0.6033    0.0000 S   0  0  0  0  0  0  0  0  0  0  0  0
    6.7619    1.0675    0.0000 O   0  0  0  0  0  0  0  0  0  0  0  0
    2.0000   -0.2985    0.0000 N   0  0  0  0  0  0  0  0  0  0  0  0
    6.7619   -0.6645    0.0000 N   0  0  0  0  0  0  0  0  0  0  0  0
    3.7320    0.7015    0.0000 C   0  0  0  0  0  0  0  0  0  0  0  0
    3.7320   -0.2985    0.0000 C   0  0  0  0  0  0  0  0  0  0  0  0
    4.6783    1.0062    0.0000 C   0  0  0  0  0  0  0  0  0  0  0  0
    5.2619    0.2015    0.0000 C   0  0  0  0  0  0  0  0  0  0  0  0
    2.8660    1.2015    0.0000 C   0  0  0  0  0  0  0  0  0  0  0  0
    2.8660   -0.7985    0.0000 C   0  0  0  0  0  0  0  0  0  0  0  0
    6.2619    0.2015    0.0000 C   0  0  0  0  0  0  0  0  0  0  0  0
    2.0000    0.7015    0.0000 C   0  0  0  0  0  0  0  0  0  0  0  0
    4.8709    1.5955    0.0000 H   0  0  0  0  0  0  0  0  0  0  0  0
    2.8660    1.8215    0.0000 H   0  0  0  0  0  0  0  0  0  0  0  0
    2.8660   -1.4185    0.0000 H   0  0  0  0  0  0  0  0  0  0  0  0
    1.4631    1.0115    0.0000 H   0  0  0  0  0  0  0  0  0  0  0  0
    7.3819   -0.6645    0.0000 H   0  0  0  0  0  0  0  0  0  0  0  0
    6.4519   -1.2015    0.0000 H   0  0  0  0  0  0  0  0  0  0  0  0
  1  6  1  0  0  0  0
  1  8  1  0  0  0  0
  2 11  2  0  0  0  0
  3 10  2  0  0  0  0
  3 12  1  0  0  0  0
  4 11  1  0  0  0  0
  4 17  1  0  0  0  0
  4 18  1  0  0  0  0
  5  6  2  0  0  0  0
  5  7  1  0  0  0  0
  5  9  1  0  0  0  0
  6 10  1  0  0  0  0
  7  8  2  0  0  0  0
  7 13  1  0  0  0  0
  8 11  1  0  0  0  0
  9 12  2  0  0  0  0
  9 14  1  0  0  0  0
 10 15  1  0  0  0  0
 12 16  1  0  0  0  0
M  END
> <PUBCHEM_COMPOUND_CID>
20244403

> <PUBCHEM_COMPOUND_CANONICALIZED>
1

> <PUBCHEM_CACTVS_COMPLEXITY>
197

> <PUBCHEM_CACTVS_HBOND_ACCEPTOR>
3

> <PUBCHEM_CACTVS_HBOND_DONOR>
1

> <PUBCHEM_CACTVS_ROTATABLE_BOND>
1

> <PUBCHEM_CACTVS_SUBSKEYS>
AAADcYBzIABAAAAAAAAAAAAAAAAAASAAAAAsAAAAAAAAAFgB+AAAHgQQAAAADADB2gQ8gdJIEAisAjF3VACDoKA1CjBI2D04ZNgIIHLglZGEIQhggADoyYcYCAAOAAAAAAAAAAAAAAAAAAAAAAAAAAAAAA==

> <PUBCHEM_IUPAC_OPENEYE_NAME>
thieno[2,3-c]pyridine-2-carboxamide

> <PUBCHEM_IUPAC_CAS_NAME>
2-thieno[2,3-c]pyridinecarboxamide

> <PUBCHEM_IUPAC_NAME_MARKUP>
thieno[2,3-c]pyridine-2-carboxamide

> <PUBCHEM_IUPAC_NAME>
thieno[2,3-c]pyridine-2-carboxamide

> <PUBCHEM_IUPAC_SYSTEMATIC_NAME>
thieno[2,3-c]pyridine-2-carboxamide

> <PUBCHEM_IUPAC_TRADITIONAL_NAME>
thieno[2,3-c]pyridine-2-carboxamide

> <PUBCHEM_IUPAC_INCHI>
InChI=1S/C8H6N2OS/c9-8(11)6-3-5-1-2-10-4-7(5)12-6/h1-4H,(H2,9,11)

> <PUBCHEM_IUPAC_INCHIKEY>
MVAMOERRWMZNPJ-UHFFFAOYSA-N

> <PUBCHEM_XLOGP3_AA>
1.1

> <PUBCHEM_EXACT_MASS>
178.02008399

> <PUBCHEM_MOLECULAR_FORMULA>
C8H6N2OS

> <PUBCHEM_MOLECULAR_WEIGHT>
178.21

> <PUBCHEM_SMILES>
C1=CN=CC2=C1C=C(S2)C(=O)N

> <PUBCHEM_OPENEYE_CAN_SMILES>
C1=CN=CC2=C1C=C(S2)C(=O)N

> <PUBCHEM_OPENEYE_ISO_SMILES>
C1=CN=CC2=C1C=C(S2)C(=O)N

> <PUBCHEM_CACTVS_TPSA>
84.2

> <PUBCHEM_MONOISOTOPIC_WEIGHT>
178.02008399

> <PUBCHEM_TOTAL_CHARGE>
0

> <PUBCHEM_HEAVY_ATOM_COUNT>
12

> <PUBCHEM_ATOM_DEF_STEREO_COUNT>
0

> <PUBCHEM_ATOM_UDEF_STEREO_COUNT>
0

> <PUBCHEM_BOND_DEF_STEREO_COUNT>
0

> <PUBCHEM_BOND_UDEF_STEREO_COUNT>
0

> <PUBCHEM_ISOTOPIC_ATOM_COUNT>
0

> <PUBCHEM_COMPONENT_COUNT>
1

> <PUBCHEM_CACTVS_TAUTO_COUNT>
-1

> <PUBCHEM_COORDINATE_TYPE>
1
5
255

> <PUBCHEM_BONDANNOTATIONS>
1  6  8
1  8  8
3  10  8
3  12  8
5  6  8
5  7  8
5  9  8
6  10  8
7  8  8
9  12  8

$$$$
