49830969
  -OEChem-03202502582D

 35 37  0     0  0  0  0  0  0999 V2000
    6.3981    1.9948    0.0000 O   0  0  0  0  0  0  0  0  0  0  0  0
    6.3981   -1.0052    0.0000 N   0  0  0  0  0  0  0  0  0  0  0  0
    8.1580   -1.0399    0.0000 N   0  0  0  0  0  0  0  0  0  0  0  0
    2.8680   -1.0294    0.0000 C   0  0  0  0  0  0  0  0  0  0  0  0
    3.7320   -0.5260    0.0000 C   0  0  0  0  0  0  0  0  0  0  0  0
    5.5320   -0.5052    0.0000 C   0  0  0  0  0  0  0  0  0  0  0  0
    5.5320    0.4948    0.0000 C   0  0  0  0  0  0  0  0  0  0  0  0
    4.6381   -1.0399    0.0000 C   0  0  0  0  0  0  0  0  0  0  0  0
    7.2641    0.4948    0.0000 C   0  0  0  0  0  0  0  0  0  0  0  0
    6.3981    0.9948    0.0000 C   0  0  0  0  0  0  0  0  0  0  0  0
    3.7320    0.5156    0.0000 C   0  0  0  0  0  0  0  0  0  0  0  0
    7.2641   -0.5052    0.0000 C   0  0  0  0  0  0  0  0  0  0  0  0
    4.6381    1.0294    0.0000 C   0  0  0  0  0  0  0  0  0  0  0  0
    2.0000   -0.5327    0.0000 C   0  0  0  0  0  0  0  0  0  0  0  0
    2.8718   -2.0294    0.0000 C   0  0  0  0  0  0  0  0  0  0  0  0
    8.1580    1.0294    0.0000 C   0  0  0  0  0  0  0  0  0  0  0  0
    9.0641    0.5156    0.0000 C   0  0  0  0  0  0  0  0  0  0  0  0
    8.1465    2.0294    0.0000 C   0  0  0  0  0  0  0  0  0  0  0  0
    9.0641   -0.5260    0.0000 C   0  0  0  0  0  0  0  0  0  0  0  0
    2.8656   -0.4094    0.0000 H   0  0  0  0  0  0  0  0  0  0  0  0
    4.6453   -1.6598    0.0000 H   0  0  0  0  0  0  0  0  0  0  0  0
    3.1963    0.8277    0.0000 H   0  0  0  0  0  0  0  0  0  0  0  0
    6.3981   -1.6252    0.0000 H   0  0  0  0  0  0  0  0  0  0  0  0
    4.6453    1.6494    0.0000 H   0  0  0  0  0  0  0  0  0  0  0  0
    2.3079    0.0054    0.0000 H   0  0  0  0  0  0  0  0  0  0  0  0
    1.4619   -0.2248    0.0000 H   0  0  0  0  0  0  0  0  0  0  0  0
    1.6921   -1.0708    0.0000 H   0  0  0  0  0  0  0  0  0  0  0  0
    2.2518   -2.0318    0.0000 H   0  0  0  0  0  0  0  0  0  0  0  0
    2.8742   -2.6494    0.0000 H   0  0  0  0  0  0  0  0  0  0  0  0
    3.4918   -2.0270    0.0000 H   0  0  0  0  0  0  0  0  0  0  0  0
    9.5998    0.8277    0.0000 H   0  0  0  0  0  0  0  0  0  0  0  0
    8.7664    2.0365    0.0000 H   0  0  0  0  0  0  0  0  0  0  0  0
    8.1393    2.6493    0.0000 H   0  0  0  0  0  0  0  0  0  0  0  0
    7.5265    2.0222    0.0000 H   0  0  0  0  0  0  0  0  0  0  0  0
    9.5998   -0.8381    0.0000 H   0  0  0  0  0  0  0  0  0  0  0  0
  1 10  2  0  0  0  0
  2  6  1  0  0  0  0
  2 12  1  0  0  0  0
  2 23  1  0  0  0  0
  3 12  2  0  0  0  0
  3 19  1  0  0  0  0
  4  5  1  0  0  0  0
  4 14  1  0  0  0  0
  4 15  1  0  0  0  0
  4 20  1  0  0  0  0
  5  8  2  0  0  0  0
  5 11  1  0  0  0  0
  6  7  2  0  0  0  0
  6  8  1  0  0  0  0
  7 10  1  0  0  0  0
  7 13  1  0  0  0  0
  8 21  1  0  0  0  0
  9 10  1  0  0  0  0
  9 12  1  0  0  0  0
  9 16  2  0  0  0  0
 11 13  2  0  0  0  0
 11 22  1  0  0  0  0
 13 24  1  0  0  0  0
 14 25  1  0  0  0  0
 14 26  1  0  0  0  0
 14 27  1  0  0  0  0
 15 28  1  0  0  0  0
 15 29  1  0  0  0  0
 15 30  1  0  0  0  0
 16 17  1  0  0  0  0
 16 18  1  0  0  0  0
 17 19  2  0  0  0  0
 17 31  1  0  0  0  0
 18 32  1  0  0  0  0
 18 33  1  0  0  0  0
 18 34  1  0  0  0  0
 19 35  1  0  0  0  0
M  END
> <PUBCHEM_COMPOUND_CID>
49830969

> <PUBCHEM_COMPOUND_CANONICALIZED>
1

> <PUBCHEM_CACTVS_COMPLEXITY>
355

> <PUBCHEM_CACTVS_HBOND_ACCEPTOR>
3

> <PUBCHEM_CACTVS_HBOND_DONOR>
1

> <PUBCHEM_CACTVS_ROTATABLE_BOND>
1

> <PUBCHEM_CACTVS_SUBSKEYS>
AAADceB7IAAAAAAAAAAAAAAAAAAAAAAAAAA8WIAAAAAAAACxwAAAHgAQAAAADQzBmgQ/8JLIEACoArZ3ZACCgCk1AiAJ2CE4ZNiIIHrAnZGEIYhokALIyecYicCOwAAAQAACAACAAACAAAQAAAAAAAAAAA==

> <PUBCHEM_IUPAC_OPENEYE_NAME>
8-isopropyl-4-methyl-10H-benzo[b][1,8]naphthyridin-5-one

> <PUBCHEM_IUPAC_CAS_NAME>
4-methyl-8-propan-2-yl-10H-benzo[b][1,8]naphthyridin-5-one

> <PUBCHEM_IUPAC_NAME_MARKUP>
4-methyl-8-propan-2-yl-10<I>H</I>-benzo[b][1,8]naphthyridin-5-one

> <PUBCHEM_IUPAC_NAME>
4-methyl-8-propan-2-yl-10H-benzo[b][1,8]naphthyridin-5-one

> <PUBCHEM_IUPAC_SYSTEMATIC_NAME>
4-methyl-8-propan-2-yl-10H-benzo[b][1,8]naphthyridin-5-one

> <PUBCHEM_IUPAC_TRADITIONAL_NAME>
8-isopropyl-4-methyl-10H-benzo[b][1,8]naphthyridin-5-one

> <PUBCHEM_IUPAC_INCHI>
InChI=1S/C16H16N2O/c1-9(2)11-4-5-12-13(8-11)18-16-14(15(12)19)10(3)6-7-17-16/h4-9H,1-3H3,(H,17,18,19)

> <PUBCHEM_IUPAC_INCHIKEY>
NMHMCXTYPRADBA-UHFFFAOYSA-N

> <PUBCHEM_XLOGP3_AA>
3.7

> <PUBCHEM_EXACT_MASS>
252.126263138

> <PUBCHEM_MOLECULAR_FORMULA>
C16H16N2O

> <PUBCHEM_MOLECULAR_WEIGHT>
252.31

> <PUBCHEM_SMILES>
CC1=C2C(=O)C3=C(C=C(C=C3)C(C)C)NC2=NC=C1

> <PUBCHEM_OPENEYE_CAN_SMILES>
CC1=C2C(=O)C3=C(C=C(C=C3)C(C)C)NC2=NC=C1

> <PUBCHEM_OPENEYE_ISO_SMILES>
CC1=C2C(=O)C3=C(C=C(C=C3)C(C)C)NC2=NC=C1

> <PUBCHEM_CACTVS_TPSA>
42

> <PUBCHEM_MONOISOTOPIC_WEIGHT>
252.126263138

> <PUBCHEM_TOTAL_CHARGE>
0

> <PUBCHEM_HEAVY_ATOM_COUNT>
19

> <PUBCHEM_ATOM_DEF_STEREO_COUNT>
0

> <PUBCHEM_ATOM_UDEF_STEREO_COUNT>
0

> <PUBCHEM_BOND_DEF_STEREO_COUNT>
0

> <PUBCHEM_BOND_UDEF_STEREO_COUNT>
0

> <PUBCHEM_ISOTOPIC_ATOM_COUNT>
0

> <PUBCHEM_COMPONENT_COUNT>
1

> <PUBCHEM_CACTVS_TAUTO_COUNT>
-1

> <PUBCHEM_COORDINATE_TYPE>
1
5
255

> <PUBCHEM_BONDANNOTATIONS>
11  13  8
16  17  8
17  19  8
2  12  8
2  6  8
3  12  8
3  19  8
5  11  8
5  8  8
6  7  8
6  8  8
7  10  8
7  13  8
9  10  8
9  12  8
9  16  8

$$$$
