49830355
  -OEChem-03202503272D

 46 49  0     0  0  0  0  0  0999 V2000
    4.5981   -2.5530    0.0000 F   0  0  0  0  0  0  0  0  0  0  0  0
    5.4641    4.9470    0.0000 F   0  0  0  0  0  0  0  0  0  0  0  0
    4.5981    1.4470    0.0000 O   0  0  0  0  0  0  0  0  0  0  0  0
    8.1424   -4.3577    0.0000 N   0  0  0  0  0  0  0  0  0  0  0  0
    8.7260   -3.5530    0.0000 N   0  0  0  0  0  0  0  0  0  0  0  0
    6.3301    1.4470    0.0000 N   0  0  0  0  0  0  0  0  0  0  0  0
    8.4530   -1.7977    0.0000 N   0  0  0  0  0  0  0  0  0  0  0  0
    5.4641    2.9470    0.0000 N   0  0  0  0  0  0  0  0  0  0  0  0
    7.1962   -3.0530    0.0000 C   0  0  0  0  0  0  0  0  0  0  0  0
    6.3301   -2.5530    0.0000 C   0  0  0  0  0  0  0  0  0  0  0  0
    7.1962   -4.0530    0.0000 C   0  0  0  0  0  0  0  0  0  0  0  0
    6.3301   -1.5530    0.0000 C   0  0  0  0  0  0  0  0  0  0  0  0
    8.1424   -2.7482    0.0000 C   0  0  0  0  0  0  0  0  0  0  0  0
    5.4641   -3.0530    0.0000 C   0  0  0  0  0  0  0  0  0  0  0  0
    6.3301   -4.5530    0.0000 C   0  0  0  0  0  0  0  0  0  0  0  0
    7.1962   -1.0530    0.0000 C   0  0  0  0  0  0  0  0  0  0  0  0
    5.4641   -1.0530    0.0000 C   0  0  0  0  0  0  0  0  0  0  0  0
    5.4641   -4.0530    0.0000 C   0  0  0  0  0  0  0  0  0  0  0  0
    6.3301    0.4470    0.0000 C   0  0  0  0  0  0  0  0  0  0  0  0
    7.1962   -0.0530    0.0000 C   0  0  0  0  0  0  0  0  0  0  0  0
    5.4641   -0.0530    0.0000 C   0  0  0  0  0  0  0  0  0  0  0  0
    4.5981    3.4470    0.0000 C   0  0  0  0  0  0  0  0  0  0  0  0
    5.4641    1.9470    0.0000 C   0  0  0  0  0  0  0  0  0  0  0  0
    2.8660    3.4470    0.0000 C   0  0  0  0  0  0  0  0  0  0  0  0
    3.7320    2.9470    0.0000 C   0  0  0  0  0  0  0  0  0  0  0  0
    4.5981    4.4470    0.0000 C   0  0  0  0  0  0  0  0  0  0  0  0
    2.8660    4.4470    0.0000 C   0  0  0  0  0  0  0  0  0  0  0  0
    3.7320    4.9470    0.0000 C   0  0  0  0  0  0  0  0  0  0  0  0
    2.0000    2.9470    0.0000 C   0  0  0  0  0  0  0  0  0  0  0  0
    6.3301   -5.1730    0.0000 H   0  0  0  0  0  0  0  0  0  0  0  0
    7.7331   -1.3630    0.0000 H   0  0  0  0  0  0  0  0  0  0  0  0
    4.9272   -1.3630    0.0000 H   0  0  0  0  0  0  0  0  0  0  0  0
    4.9272   -4.3630    0.0000 H   0  0  0  0  0  0  0  0  0  0  0  0
    8.3350   -4.9470    0.0000 H   0  0  0  0  0  0  0  0  0  0  0  0
    7.7331    0.2570    0.0000 H   0  0  0  0  0  0  0  0  0  0  0  0
    4.9272    0.2570    0.0000 H   0  0  0  0  0  0  0  0  0  0  0  0
    6.8671    1.7570    0.0000 H   0  0  0  0  0  0  0  0  0  0  0  0
    9.0597   -1.6699    0.0000 H   0  0  0  0  0  0  0  0  0  0  0  0
    8.0390   -1.3362    0.0000 H   0  0  0  0  0  0  0  0  0  0  0  0
    3.7320    2.3270    0.0000 H   0  0  0  0  0  0  0  0  0  0  0  0
    6.0010    3.2570    0.0000 H   0  0  0  0  0  0  0  0  0  0  0  0
    2.3291    4.7570    0.0000 H   0  0  0  0  0  0  0  0  0  0  0  0
    3.7320    5.5670    0.0000 H   0  0  0  0  0  0  0  0  0  0  0  0
    1.6900    3.4840    0.0000 H   0  0  0  0  0  0  0  0  0  0  0  0
    1.4631    2.6370    0.0000 H   0  0  0  0  0  0  0  0  0  0  0  0
    2.3100    2.4101    0.0000 H   0  0  0  0  0  0  0  0  0  0  0  0
  1 14  1  0  0  0  0
  2 26  1  0  0  0  0
  3 23  2  0  0  0  0
  4  5  1  0  0  0  0
  4 11  1  0  0  0  0
  4 34  1  0  0  0  0
  5 13  2  0  0  0  0
  6 19  1  0  0  0  0
  6 23  1  0  0  0  0
  6 37  1  0  0  0  0
  7 13  1  0  0  0  0
  7 38  1  0  0  0  0
  7 39  1  0  0  0  0
  8 22  1  0  0  0  0
  8 23  1  0  0  0  0
  8 41  1  0  0  0  0
  9 10  1  0  0  0  0
  9 11  2  0  0  0  0
  9 13  1  0  0  0  0
 10 12  1  0  0  0  0
 10 14  2  0  0  0  0
 11 15  1  0  0  0  0
 12 16  2  0  0  0  0
 12 17  1  0  0  0  0
 14 18  1  0  0  0  0
 15 18  2  0  0  0  0
 15 30  1  0  0  0  0
 16 20  1  0  0  0  0
 16 31  1  0  0  0  0
 17 21  2  0  0  0  0
 17 32  1  0  0  0  0
 18 33  1  0  0  0  0
 19 20  2  0  0  0  0
 19 21  1  0  0  0  0
 20 35  1  0  0  0  0
 21 36  1  0  0  0  0
 22 25  1  0  0  0  0
 22 26  2  0  0  0  0
 24 25  2  0  0  0  0
 24 27  1  0  0  0  0
 24 29  1  0  0  0  0
 25 40  1  0  0  0  0
 26 28  1  0  0  0  0
 27 28  2  0  0  0  0
 27 42  1  0  0  0  0
 28 43  1  0  0  0  0
 29 44  1  0  0  0  0
 29 45  1  0  0  0  0
 29 46  1  0  0  0  0
M  END
> <PUBCHEM_COMPOUND_CID>
49830355

> <PUBCHEM_COMPOUND_CANONICALIZED>
1

> <PUBCHEM_CACTVS_COMPLEXITY>
573

> <PUBCHEM_CACTVS_HBOND_ACCEPTOR>
5

> <PUBCHEM_CACTVS_HBOND_DONOR>
4

> <PUBCHEM_CACTVS_ROTATABLE_BOND>
3

> <PUBCHEM_CACTVS_SUBSKEYS>
AAADceB7oYAAAAAAAAAAAAAAAAAAAWAAAAAwYMAAAAAAAFgB9AAAHwAYAAAADAiBHggz8PLjAACqAyZicACSBAIhAgAcuSAwZJiIIKLA0dGEpAh4nAJIyCcQgMAOiAAAQAASAAAQAACAACQAAAAAAAAAAA==

> <PUBCHEM_IUPAC_OPENEYE_NAME>
1-[4-(3-amino-5-fluoro-1H-indazol-4-yl)phenyl]-3-(2-fluoro-5-methyl-phenyl)urea

> <PUBCHEM_IUPAC_CAS_NAME>
1-[4-(3-amino-5-fluoro-1H-indazol-4-yl)phenyl]-3-(2-fluoro-5-methylphenyl)urea

> <PUBCHEM_IUPAC_NAME_MARKUP>
1-[4-(3-amino-5-fluoro-1<I>H</I>-indazol-4-yl)phenyl]-3-(2-fluoro-5-methylphenyl)urea

> <PUBCHEM_IUPAC_NAME>
1-[4-(3-amino-5-fluoro-1H-indazol-4-yl)phenyl]-3-(2-fluoro-5-methylphenyl)urea

> <PUBCHEM_IUPAC_SYSTEMATIC_NAME>
1-[4-(3-azanyl-5-fluoranyl-1H-indazol-4-yl)phenyl]-3-(2-fluoranyl-5-methyl-phenyl)urea

> <PUBCHEM_IUPAC_TRADITIONAL_NAME>
1-[4-(3-amino-5-fluoro-1H-indazol-4-yl)phenyl]-3-(2-fluoro-5-methyl-phenyl)urea

> <PUBCHEM_IUPAC_INCHI>
InChI=1S/C21H17F2N5O/c1-11-2-7-14(22)17(10-11)26-21(29)25-13-5-3-12(4-6-13)18-15(23)8-9-16-19(18)20(24)28-27-16/h2-10H,1H3,(H3,24,27,28)(H2,25,26,29)

> <PUBCHEM_IUPAC_INCHIKEY>
QAKMQVCMEPKBHL-UHFFFAOYSA-N

> <PUBCHEM_XLOGP3_AA>
4

> <PUBCHEM_EXACT_MASS>
393.14011651

> <PUBCHEM_MOLECULAR_FORMULA>
C21H17F2N5O

> <PUBCHEM_MOLECULAR_WEIGHT>
393.4

> <PUBCHEM_SMILES>
CC1=CC(=C(C=C1)F)NC(=O)NC2=CC=C(C=C2)C3=C(C=CC4=C3C(=NN4)N)F

> <PUBCHEM_OPENEYE_CAN_SMILES>
CC1=CC(=C(C=C1)F)NC(=O)NC2=CC=C(C=C2)C3=C(C=CC4=C3C(=NN4)N)F

> <PUBCHEM_OPENEYE_ISO_SMILES>
CC1=CC(=C(C=C1)F)NC(=O)NC2=CC=C(C=C2)C3=C(C=CC4=C3C(=NN4)N)F

> <PUBCHEM_CACTVS_TPSA>
95.8

> <PUBCHEM_MONOISOTOPIC_WEIGHT>
393.14011651

> <PUBCHEM_TOTAL_CHARGE>
0

> <PUBCHEM_HEAVY_ATOM_COUNT>
29

> <PUBCHEM_ATOM_DEF_STEREO_COUNT>
0

> <PUBCHEM_ATOM_UDEF_STEREO_COUNT>
0

> <PUBCHEM_BOND_DEF_STEREO_COUNT>
0

> <PUBCHEM_BOND_UDEF_STEREO_COUNT>
0

> <PUBCHEM_ISOTOPIC_ATOM_COUNT>
0

> <PUBCHEM_COMPONENT_COUNT>
1

> <PUBCHEM_CACTVS_TAUTO_COUNT>
-1

> <PUBCHEM_COORDINATE_TYPE>
1
5
255

> <PUBCHEM_BONDANNOTATIONS>
10  14  8
11  15  8
12  16  8
12  17  8
14  18  8
15  18  8
16  20  8
17  21  8
19  20  8
19  21  8
22  25  8
22  26  8
24  25  8
24  27  8
26  28  8
27  28  8
4  11  8
4  5  8
5  13  8
9  10  8
9  11  8
9  13  8

$$$$
