49830293
  -OEChem-03202503082D

 42 45  0     0  0  0  0  0  0999 V2000
    7.2566   -0.4137    0.0000 Cl  0  0  0  0  0  0  0  0  0  0  0  0
    5.2066    4.4645    0.0000 O   0  0  0  0  0  0  0  0  0  0  0  0
    3.9639    0.6624    0.0000 N   0  0  0  0  0  0  0  0  0  0  0  0
    4.3211   -1.0324    0.0000 N   0  0  0  0  0  0  0  0  0  0  0  0
    5.9674   -1.5705    0.0000 N   0  0  0  0  0  0  0  0  0  0  0  0
    4.6783   -4.3367    0.0000 N   0  0  0  0  0  0  0  0  0  0  0  0
    2.8660   -4.5319    0.0000 N   0  0  0  0  0  0  0  0  0  0  0  0
    4.2746    1.6130    0.0000 C   0  0  0  0  0  0  0  0  0  0  0  0
    3.6067    2.3573    0.0000 C   0  0  0  0  0  0  0  0  0  0  0  0
    5.2531    1.8192    0.0000 C   0  0  0  0  0  0  0  0  0  0  0  0
    4.8959    3.5140    0.0000 C   0  0  0  0  0  0  0  0  0  0  0  0
    3.9174    3.3078    0.0000 C   0  0  0  0  0  0  0  0  0  0  0  0
    5.5637    2.7697    0.0000 C   0  0  0  0  0  0  0  0  0  0  0  0
    4.6318   -0.0819    0.0000 C   0  0  0  0  0  0  0  0  0  0  0  0
    5.6103    0.1244    0.0000 C   0  0  0  0  0  0  0  0  0  0  0  0
    4.9889   -1.7767    0.0000 C   0  0  0  0  0  0  0  0  0  0  0  0
    4.6783   -2.7272    0.0000 C   0  0  0  0  0  0  0  0  0  0  0  0
    3.7320   -3.0319    0.0000 C   0  0  0  0  0  0  0  0  0  0  0  0
    6.2781   -0.6199    0.0000 C   0  0  0  0  0  0  0  0  0  0  0  0
    3.7320   -4.0319    0.0000 C   0  0  0  0  0  0  0  0  0  0  0  0
    5.2619   -3.5319    0.0000 C   0  0  0  0  0  0  0  0  0  0  0  0
    2.8660   -2.5319    0.0000 C   0  0  0  0  0  0  0  0  0  0  0  0
    2.0000   -3.0319    0.0000 C   0  0  0  0  0  0  0  0  0  0  0  0
    2.0000   -4.0319    0.0000 C   0  0  0  0  0  0  0  0  0  0  0  0
    4.6886    1.1515    0.0000 H   0  0  0  0  0  0  0  0  0  0  0  0
    3.0598    2.6493    0.0000 H   0  0  0  0  0  0  0  0  0  0  0  0
    3.2242    1.8694    0.0000 H   0  0  0  0  0  0  0  0  0  0  0  0
    5.2736    1.1995    0.0000 H   0  0  0  0  0  0  0  0  0  0  0  0
    5.8669    1.7318    0.0000 H   0  0  0  0  0  0  0  0  0  0  0  0
    5.5026    3.6419    0.0000 H   0  0  0  0  0  0  0  0  0  0  0  0
    3.8968    3.9274    0.0000 H   0  0  0  0  0  0  0  0  0  0  0  0
    3.3036    3.3951    0.0000 H   0  0  0  0  0  0  0  0  0  0  0  0
    6.1107    2.4777    0.0000 H   0  0  0  0  0  0  0  0  0  0  0  0
    5.9463    3.2576    0.0000 H   0  0  0  0  0  0  0  0  0  0  0  0
    3.3572    0.5346    0.0000 H   0  0  0  0  0  0  0  0  0  0  0  0
    4.7925    4.9260    0.0000 H   0  0  0  0  0  0  0  0  0  0  0  0
    5.8029    0.7137    0.0000 H   0  0  0  0  0  0  0  0  0  0  0  0
    5.8819   -3.5319    0.0000 H   0  0  0  0  0  0  0  0  0  0  0  0
    4.8709   -4.9260    0.0000 H   0  0  0  0  0  0  0  0  0  0  0  0
    2.8660   -1.9119    0.0000 H   0  0  0  0  0  0  0  0  0  0  0  0
    1.4631   -2.7219    0.0000 H   0  0  0  0  0  0  0  0  0  0  0  0
    1.4631   -4.3419    0.0000 H   0  0  0  0  0  0  0  0  0  0  0  0
  1 19  1  0  0  0  0
  2 11  1  0  0  0  0
  2 36  1  0  0  0  0
  3  8  1  0  0  0  0
  3 14  1  0  0  0  0
  3 35  1  0  0  0  0
  4 14  1  0  0  0  0
  4 16  2  0  0  0  0
  5 16  1  0  0  0  0
  5 19  2  0  0  0  0
  6 20  1  0  0  0  0
  6 21  1  0  0  0  0
  6 39  1  0  0  0  0
  7 20  1  0  0  0  0
  7 24  2  0  0  0  0
  8  9  1  0  0  0  0
  8 10  1  0  0  0  0
  8 25  1  0  0  0  0
  9 12  1  0  0  0  0
  9 26  1  0  0  0  0
  9 27  1  0  0  0  0
 10 13  1  0  0  0  0
 10 28  1  0  0  0  0
 10 29  1  0  0  0  0
 11 12  1  0  0  0  0
 11 13  1  0  0  0  0
 11 30  1  0  0  0  0
 12 31  1  0  0  0  0
 12 32  1  0  0  0  0
 13 33  1  0  0  0  0
 13 34  1  0  0  0  0
 14 15  2  0  0  0  0
 15 19  1  0  0  0  0
 15 37  1  0  0  0  0
 16 17  1  0  0  0  0
 17 18  1  0  0  0  0
 17 21  2  0  0  0  0
 18 20  2  0  0  0  0
 18 22  1  0  0  0  0
 21 38  1  0  0  0  0
 22 23  2  0  0  0  0
 22 40  1  0  0  0  0
 23 24  1  0  0  0  0
 23 41  1  0  0  0  0
 24 42  1  0  0  0  0
M  END
> <PUBCHEM_COMPOUND_CID>
49830293

> <PUBCHEM_COMPOUND_CANONICALIZED>
1

> <PUBCHEM_CACTVS_COMPLEXITY>
420

> <PUBCHEM_CACTVS_HBOND_ACCEPTOR>
5

> <PUBCHEM_CACTVS_HBOND_DONOR>
3

> <PUBCHEM_CACTVS_ROTATABLE_BOND>
3

> <PUBCHEM_CACTVS_SUBSKEYS>
AAADceB7oAAEAAAAAAAAAAAAAAAAAWAAAAA8WIAAAAAAAFgB/gAAHgIQCAAADD7hmyY9sN7JkgCgAjJnZACCgCmxB6AJ2aA4ZpiIOOLA2dGEZAhskALIyCewQAAOgAAAAAAAAAAAgAAAAAAAAAAAAAAAAA==

> <PUBCHEM_IUPAC_OPENEYE_NAME>
4-[[6-chloro-2-(1H-pyrrolo[2,3-b]pyridin-3-yl)pyrimidin-4-yl]amino]cyclohexanol

> <PUBCHEM_IUPAC_CAS_NAME>
4-[[6-chloro-2-(1H-pyrrolo[2,3-b]pyridin-3-yl)-4-pyrimidinyl]amino]-1-cyclohexanol

> <PUBCHEM_IUPAC_NAME_MARKUP>
4-[[6-chloro-2-(1<I>H</I>-pyrrolo[2,3-b]pyridin-3-yl)pyrimidin-4-yl]amino]cyclohexan-1-ol

> <PUBCHEM_IUPAC_NAME>
4-[[6-chloro-2-(1H-pyrrolo[2,3-b]pyridin-3-yl)pyrimidin-4-yl]amino]cyclohexan-1-ol

> <PUBCHEM_IUPAC_SYSTEMATIC_NAME>
4-[[6-chloranyl-2-(1H-pyrrolo[2,3-b]pyridin-3-yl)pyrimidin-4-yl]amino]cyclohexan-1-ol

> <PUBCHEM_IUPAC_TRADITIONAL_NAME>
4-[[6-chloro-2-(1H-pyrrolo[2,3-b]pyridin-3-yl)pyrimidin-4-yl]amino]cyclohexanol

> <PUBCHEM_IUPAC_INCHI>
InChI=1S/C17H18ClN5O/c18-14-8-15(21-10-3-5-11(24)6-4-10)23-17(22-14)13-9-20-16-12(13)2-1-7-19-16/h1-2,7-11,24H,3-6H2,(H,19,20)(H,21,22,23)

> <PUBCHEM_IUPAC_INCHIKEY>
OUJZYQBEFNDJQN-UHFFFAOYSA-N

> <PUBCHEM_XLOGP3_AA>
3.2

> <PUBCHEM_EXACT_MASS>
343.1199879

> <PUBCHEM_MOLECULAR_FORMULA>
C17H18ClN5O

> <PUBCHEM_MOLECULAR_WEIGHT>
343.8

> <PUBCHEM_SMILES>
C1CC(CCC1NC2=CC(=NC(=N2)C3=CNC4=C3C=CC=N4)Cl)O

> <PUBCHEM_OPENEYE_CAN_SMILES>
C1CC(CCC1NC2=CC(=NC(=N2)C3=CNC4=C3C=CC=N4)Cl)O

> <PUBCHEM_OPENEYE_ISO_SMILES>
C1CC(CCC1NC2=CC(=NC(=N2)C3=CNC4=C3C=CC=N4)Cl)O

> <PUBCHEM_CACTVS_TPSA>
86.7

> <PUBCHEM_MONOISOTOPIC_WEIGHT>
343.1199879

> <PUBCHEM_TOTAL_CHARGE>
0

> <PUBCHEM_HEAVY_ATOM_COUNT>
24

> <PUBCHEM_ATOM_DEF_STEREO_COUNT>
0

> <PUBCHEM_ATOM_UDEF_STEREO_COUNT>
0

> <PUBCHEM_BOND_DEF_STEREO_COUNT>
0

> <PUBCHEM_BOND_UDEF_STEREO_COUNT>
0

> <PUBCHEM_ISOTOPIC_ATOM_COUNT>
0

> <PUBCHEM_COMPONENT_COUNT>
1

> <PUBCHEM_CACTVS_TAUTO_COUNT>
-1

> <PUBCHEM_COORDINATE_TYPE>
1
5
255

> <PUBCHEM_BONDANNOTATIONS>
14  15  8
15  19  8
17  18  8
17  21  8
18  20  8
18  22  8
22  23  8
23  24  8
4  14  8
4  16  8
5  16  8
5  19  8
6  20  8
6  21  8
7  20  8
7  24  8

$$$$
