18451135
  -OEChem-03202502222D

 64 67  0     0  0  0  0  0  0999 V2000
    5.3122   -1.7130    0.0000 S   0  0  0  0  0  0  0  0  0  0  0  0
    8.2012    3.1605    0.0000 O   0  0  0  0  0  0  0  0  0  0  0  0
    3.5000   -5.9083    0.0000 N   0  0  0  0  0  0  0  0  0  0  0  0
    2.6340   -0.4083    0.0000 N   0  0  0  0  0  0  0  0  0  0  0  0
    3.5000    1.0917    0.0000 N   0  0  0  0  0  0  0  0  0  0  0  0
    6.5549    3.6986    0.0000 N   0  0  0  0  0  0  0  0  0  0  0  0
    7.8441    4.8553    0.0000 N   0  0  0  0  0  0  0  0  0  0  0  0
    3.5000   -4.9083    0.0000 C   0  0  0  0  0  0  0  0  0  0  0  0
    2.5000   -4.9083    0.0000 C   0  0  0  0  0  0  0  0  0  0  0  0
    4.5000   -4.9083    0.0000 C   0  0  0  0  0  0  0  0  0  0  0  0
    2.0000   -4.0422    0.0000 C   0  0  0  0  0  0  0  0  0  0  0  0
    5.0000   -5.7743    0.0000 C   0  0  0  0  0  0  0  0  0  0  0  0
    3.5000   -3.9083    0.0000 C   0  0  0  0  0  0  0  0  0  0  0  0
    4.3660   -0.4083    0.0000 C   0  0  0  0  0  0  0  0  0  0  0  0
    5.3122   -0.1035    0.0000 C   0  0  0  0  0  0  0  0  0  0  0  0
    4.3660   -1.4083    0.0000 C   0  0  0  0  0  0  0  0  0  0  0  0
    3.5000   -1.9083    0.0000 C   0  0  0  0  0  0  0  0  0  0  0  0
    5.6229    0.8470    0.0000 C   0  0  0  0  0  0  0  0  0  0  0  0
    3.5000   -2.9083    0.0000 C   0  0  0  0  0  0  0  0  0  0  0  0
    3.5000    0.0917    0.0000 C   0  0  0  0  0  0  0  0  0  0  0  0
    5.8958   -0.9083    0.0000 C   0  0  0  0  0  0  0  0  0  0  0  0
    2.6340   -1.4083    0.0000 C   0  0  0  0  0  0  0  0  0  0  0  0
    6.6014    1.0532    0.0000 C   0  0  0  0  0  0  0  0  0  0  0  0
    4.9551    1.5913    0.0000 C   0  0  0  0  0  0  0  0  0  0  0  0
    6.2442    2.7480    0.0000 C   0  0  0  0  0  0  0  0  0  0  0  0
    6.9121    2.0037    0.0000 C   0  0  0  0  0  0  0  0  0  0  0  0
    5.2657    2.5418    0.0000 C   0  0  0  0  0  0  0  0  0  0  0  0
    7.5334    3.9048    0.0000 C   0  0  0  0  0  0  0  0  0  0  0  0
    8.8226    5.0615    0.0000 C   0  0  0  0  0  0  0  0  0  0  0  0
    9.4904    4.3172    0.0000 C   0  0  0  0  0  0  0  0  0  0  0  0
   10.4689    4.5234    0.0000 C   0  0  0  0  0  0  0  0  0  0  0  0
    9.1332    6.0120    0.0000 C   0  0  0  0  0  0  0  0  0  0  0  0
   10.7796    5.4740    0.0000 C   0  0  0  0  0  0  0  0  0  0  0  0
   10.1117    6.2183    0.0000 C   0  0  0  0  0  0  0  0  0  0  0  0
   11.1368    3.7791    0.0000 C   0  0  0  0  0  0  0  0  0  0  0  0
    1.9174   -5.1203    0.0000 H   0  0  0  0  0  0  0  0  0  0  0  0
    2.6077   -5.5188    0.0000 H   0  0  0  0  0  0  0  0  0  0  0  0
    5.0826   -4.6962    0.0000 H   0  0  0  0  0  0  0  0  0  0  0  0
    4.3923   -4.2977    0.0000 H   0  0  0  0  0  0  0  0  0  0  0  0
    2.5369   -3.7322    0.0000 H   0  0  0  0  0  0  0  0  0  0  0  0
    1.6900   -3.5053    0.0000 H   0  0  0  0  0  0  0  0  0  0  0  0
    1.4631   -4.3522    0.0000 H   0  0  0  0  0  0  0  0  0  0  0  0
    4.4631   -6.0843    0.0000 H   0  0  0  0  0  0  0  0  0  0  0  0
    5.3100   -6.3112    0.0000 H   0  0  0  0  0  0  0  0  0  0  0  0
    5.5369   -5.4643    0.0000 H   0  0  0  0  0  0  0  0  0  0  0  0
    2.9631   -6.2183    0.0000 H   0  0  0  0  0  0  0  0  0  0  0  0
    4.0369   -6.2183    0.0000 H   0  0  0  0  0  0  0  0  0  0  0  0
    6.5158   -0.9083    0.0000 H   0  0  0  0  0  0  0  0  0  0  0  0
    2.0970   -1.7183    0.0000 H   0  0  0  0  0  0  0  0  0  0  0  0
    7.0155    0.5917    0.0000 H   0  0  0  0  0  0  0  0  0  0  0  0
    4.3484    1.4634    0.0000 H   0  0  0  0  0  0  0  0  0  0  0  0
    7.5188    2.1316    0.0000 H   0  0  0  0  0  0  0  0  0  0  0  0
    4.8517    3.0033    0.0000 H   0  0  0  0  0  0  0  0  0  0  0  0
    2.9631    1.4017    0.0000 H   0  0  0  0  0  0  0  0  0  0  0  0
    4.0369    1.4017    0.0000 H   0  0  0  0  0  0  0  0  0  0  0  0
    6.1408    4.1600    0.0000 H   0  0  0  0  0  0  0  0  0  0  0  0
    7.4300    5.3168    0.0000 H   0  0  0  0  0  0  0  0  0  0  0  0
    9.2978    3.7279    0.0000 H   0  0  0  0  0  0  0  0  0  0  0  0
    8.7192    6.4735    0.0000 H   0  0  0  0  0  0  0  0  0  0  0  0
   11.3863    5.6018    0.0000 H   0  0  0  0  0  0  0  0  0  0  0  0
   10.3043    6.8076    0.0000 H   0  0  0  0  0  0  0  0  0  0  0  0
   10.6753    3.3651    0.0000 H   0  0  0  0  0  0  0  0  0  0  0  0
   11.5508    3.3177    0.0000 H   0  0  0  0  0  0  0  0  0  0  0  0
   11.5982    4.1932    0.0000 H   0  0  0  0  0  0  0  0  0  0  0  0
  1 16  1  0  0  0  0
  1 21  1  0  0  0  0
  2 28  2  0  0  0  0
  3  8  1  0  0  0  0
  3 46  1  0  0  0  0
  3 47  1  0  0  0  0
  4 20  2  0  0  0  0
  4 22  1  0  0  0  0
  5 20  1  0  0  0  0
  5 54  1  0  0  0  0
  5 55  1  0  0  0  0
  6 25  1  0  0  0  0
  6 28  1  0  0  0  0
  6 56  1  0  0  0  0
  7 28  1  0  0  0  0
  7 29  1  0  0  0  0
  7 57  1  0  0  0  0
  8  9  1  0  0  0  0
  8 10  1  0  0  0  0
  8 13  1  0  0  0  0
  9 11  1  0  0  0  0
  9 36  1  0  0  0  0
  9 37  1  0  0  0  0
 10 12  1  0  0  0  0
 10 38  1  0  0  0  0
 10 39  1  0  0  0  0
 11 40  1  0  0  0  0
 11 41  1  0  0  0  0
 11 42  1  0  0  0  0
 12 43  1  0  0  0  0
 12 44  1  0  0  0  0
 12 45  1  0  0  0  0
 13 19  3  0  0  0  0
 14 15  1  0  0  0  0
 14 16  2  0  0  0  0
 14 20  1  0  0  0  0
 15 18  1  0  0  0  0
 15 21  2  0  0  0  0
 16 17  1  0  0  0  0
 17 19  1  0  0  0  0
 17 22  2  0  0  0  0
 18 23  2  0  0  0  0
 18 24  1  0  0  0  0
 21 48  1  0  0  0  0
 22 49  1  0  0  0  0
 23 26  1  0  0  0  0
 23 50  1  0  0  0  0
 24 27  2  0  0  0  0
 24 51  1  0  0  0  0
 25 26  2  0  0  0  0
 25 27  1  0  0  0  0
 26 52  1  0  0  0  0
 27 53  1  0  0  0  0
 29 30  1  0  0  0  0
 29 32  2  0  0  0  0
 30 31  2  0  0  0  0
 30 58  1  0  0  0  0
 31 33  1  0  0  0  0
 31 35  1  0  0  0  0
 32 34  1  0  0  0  0
 32 59  1  0  0  0  0
 33 34  2  0  0  0  0
 33 60  1  0  0  0  0
 34 61  1  0  0  0  0
 35 62  1  0  0  0  0
 35 63  1  0  0  0  0
 35 64  1  0  0  0  0
M  END
> <PUBCHEM_COMPOUND_CID>
18451135

> <PUBCHEM_COMPOUND_CANONICALIZED>
1

> <PUBCHEM_CACTVS_COMPLEXITY>
781

> <PUBCHEM_CACTVS_HBOND_ACCEPTOR>
5

> <PUBCHEM_CACTVS_HBOND_DONOR>
4

> <PUBCHEM_CACTVS_ROTATABLE_BOND>
7

> <PUBCHEM_CACTVS_SUBSKEYS>
AAADceB7oABAAAAAAAAAAAAAAAAAASAAAAA8YIAAAAAAAFgB/AAAHgQQAAAADIjFWgS/8dLIEAjsEjZndAiDgKkxCjAI2DAoZJiIIGLgkZGEIAxolALoyCcQgMAOiAAAQAAAAAAQAACAAAAAAAAAAAAAAA==

> <PUBCHEM_IUPAC_OPENEYE_NAME>
1-[4-[4-amino-7-(3-amino-3-ethyl-pent-1-ynyl)thieno[3,2-c]pyridin-3-yl]phenyl]-3-(m-tolyl)urea

> <PUBCHEM_IUPAC_CAS_NAME>
1-[4-[4-amino-7-(3-amino-3-ethylpent-1-ynyl)-3-thieno[3,2-c]pyridinyl]phenyl]-3-(3-methylphenyl)urea

> <PUBCHEM_IUPAC_NAME_MARKUP>
1-[4-[4-amino-7-(3-amino-3-ethylpent-1-ynyl)thieno[3,2-c]pyridin-3-yl]phenyl]-3-(3-methylphenyl)urea

> <PUBCHEM_IUPAC_NAME>
1-[4-[4-amino-7-(3-amino-3-ethylpent-1-ynyl)thieno[3,2-c]pyridin-3-yl]phenyl]-3-(3-methylphenyl)urea

> <PUBCHEM_IUPAC_SYSTEMATIC_NAME>
1-[4-[4-azanyl-7-(3-azanyl-3-ethyl-pent-1-ynyl)thieno[3,2-c]pyridin-3-yl]phenyl]-3-(3-methylphenyl)urea

> <PUBCHEM_IUPAC_TRADITIONAL_NAME>
1-[4-[4-amino-7-(3-amino-3-ethyl-pent-1-ynyl)thieno[3,2-c]pyridin-3-yl]phenyl]-3-(m-tolyl)urea

> <PUBCHEM_IUPAC_INCHI>
InChI=1S/C28H29N5OS/c1-4-28(30,5-2)14-13-20-16-31-26(29)24-23(17-35-25(20)24)19-9-11-21(12-10-19)32-27(34)33-22-8-6-7-18(3)15-22/h6-12,15-17H,4-5,30H2,1-3H3,(H2,29,31)(H2,32,33,34)

> <PUBCHEM_IUPAC_INCHIKEY>
HRZOUBQYVUXBNS-UHFFFAOYSA-N

> <PUBCHEM_XLOGP3_AA>
5

> <PUBCHEM_EXACT_MASS>
483.20928174

> <PUBCHEM_MOLECULAR_FORMULA>
C28H29N5OS

> <PUBCHEM_MOLECULAR_WEIGHT>
483.6

> <PUBCHEM_SMILES>
CCC(CC)(C#CC1=CN=C(C2=C1SC=C2C3=CC=C(C=C3)NC(=O)NC4=CC=CC(=C4)C)N)N

> <PUBCHEM_OPENEYE_CAN_SMILES>
CCC(CC)(C#CC1=CN=C(C2=C1SC=C2C3=CC=C(C=C3)NC(=O)NC4=CC=CC(=C4)C)N)N

> <PUBCHEM_OPENEYE_ISO_SMILES>
CCC(CC)(C#CC1=CN=C(C2=C1SC=C2C3=CC=C(C=C3)NC(=O)NC4=CC=CC(=C4)C)N)N

> <PUBCHEM_CACTVS_TPSA>
134

> <PUBCHEM_MONOISOTOPIC_WEIGHT>
483.20928174

> <PUBCHEM_TOTAL_CHARGE>
0

> <PUBCHEM_HEAVY_ATOM_COUNT>
35

> <PUBCHEM_ATOM_DEF_STEREO_COUNT>
0

> <PUBCHEM_ATOM_UDEF_STEREO_COUNT>
0

> <PUBCHEM_BOND_DEF_STEREO_COUNT>
0

> <PUBCHEM_BOND_UDEF_STEREO_COUNT>
0

> <PUBCHEM_ISOTOPIC_ATOM_COUNT>
0

> <PUBCHEM_COMPONENT_COUNT>
1

> <PUBCHEM_CACTVS_TAUTO_COUNT>
-1

> <PUBCHEM_COORDINATE_TYPE>
1
5
255

> <PUBCHEM_BONDANNOTATIONS>
1  16  8
1  21  8
14  15  8
14  16  8
14  20  8
15  21  8
16  17  8
17  22  8
18  23  8
18  24  8
23  26  8
24  27  8
25  26  8
25  27  8
29  30  8
29  32  8
30  31  8
31  33  8
32  34  8
33  34  8
4  20  8
4  22  8

$$$$
