11422034
  -OEChem-03202500322D

 59 60  0     0  0  0  0  0  0999 V2000
    3.2152    0.9273    0.0000 S   0  0  0  0  0  0  0  0  0  0  0  0
    4.3919    9.8300    0.0000 F   0  0  0  0  0  0  0  0  0  0  0  0
    4.7579   11.1961    0.0000 F   0  0  0  0  0  0  0  0  0  0  0  0
    5.7579    9.4640    0.0000 F   0  0  0  0  0  0  0  0  0  0  0  0
    4.7579   15.5610    0.0000 F   0  0  0  0  0  0  0  0  0  0  0  0
    4.3919   14.1949    0.0000 F   0  0  0  0  0  0  0  0  0  0  0  0
    5.7579   13.8289    0.0000 F   0  0  0  0  0  0  0  0  0  0  0  0
    6.9900   10.3300    0.0000 O   0  0  0  0  0  0  0  0  0  0  0  0
    6.9900   14.6949    0.0000 O   0  0  0  0  0  0  0  0  0  0  0  0
    6.1240   11.8300    0.0000 O   0  0  0  0  0  0  0  0  0  0  0  0
    6.1240   16.1949    0.0000 O   0  0  0  0  0  0  0  0  0  0  0  0
    3.2152    2.5368    0.0000 N   0  0  0  0  0  0  0  0  0  0  0  0
    7.7988    3.4641    0.0000 N   0  0  0  0  0  0  0  0  0  0  0  0
    6.2988    2.5981    0.0000 N   0  0  0  0  0  0  0  0  0  0  0  0
    6.2988    4.3301    0.0000 N   0  0  0  0  0  0  0  0  0  0  0  0
    9.7988    6.9282    0.0000 N   0  0  0  0  0  0  0  0  0  0  0  0
    5.7988    0.0000    0.0000 N   0  0  0  0  0  0  0  0  0  0  0  0
    9.2988    4.3301    0.0000 C   0  0  0  0  0  0  0  0  0  0  0  0
    8.2988    4.3301    0.0000 C   0  0  0  0  0  0  0  0  0  0  0  0
    2.2690    2.2320    0.0000 C   0  0  0  0  0  0  0  0  0  0  0  0
    2.2690    1.2320    0.0000 C   0  0  0  0  0  0  0  0  0  0  0  0
    3.7988    1.7320    0.0000 C   0  0  0  0  0  0  0  0  0  0  0  0
    9.7988    5.1962    0.0000 C   0  0  0  0  0  0  0  0  0  0  0  0
    4.7988    1.7320    0.0000 C   0  0  0  0  0  0  0  0  0  0  0  0
    1.4030    2.7320    0.0000 C   0  0  0  0  0  0  0  0  0  0  0  0
    5.2988    2.5981    0.0000 C   0  0  0  0  0  0  0  0  0  0  0  0
    1.4030    0.7321    0.0000 C   0  0  0  0  0  0  0  0  0  0  0  0
    6.7988    3.4641    0.0000 C   0  0  0  0  0  0  0  0  0  0  0  0
    0.5369    2.2320    0.0000 C   0  0  0  0  0  0  0  0  0  0  0  0
    0.5369    1.2320    0.0000 C   0  0  0  0  0  0  0  0  0  0  0  0
   10.7988    5.1962    0.0000 C   0  0  0  0  0  0  0  0  0  0  0  0
    9.2988    6.0622    0.0000 C   0  0  0  0  0  0  0  0  0  0  0  0
    4.7988    3.4641    0.0000 C   0  0  0  0  0  0  0  0  0  0  0  0
    5.2988    4.3301    0.0000 C   0  0  0  0  0  0  0  0  0  0  0  0
   11.2988    6.0622    0.0000 C   0  0  0  0  0  0  0  0  0  0  0  0
   10.7988    6.9282    0.0000 C   0  0  0  0  0  0  0  0  0  0  0  0
    5.2988    0.8660    0.0000 C   0  0  0  0  0  0  0  0  0  0  0  0
    5.2579   10.3300    0.0000 C   0  0  0  0  0  0  0  0  0  0  0  0
    5.2579   14.6949    0.0000 C   0  0  0  0  0  0  0  0  0  0  0  0
    6.1240   10.8300    0.0000 C   0  0  0  0  0  0  0  0  0  0  0  0
    6.1240   15.1949    0.0000 C   0  0  0  0  0  0  0  0  0  0  0  0
    9.1912    3.7196    0.0000 H   0  0  0  0  0  0  0  0  0  0  0  0
    9.8814    4.1181    0.0000 H   0  0  0  0  0  0  0  0  0  0  0  0
    8.4065    4.9407    0.0000 H   0  0  0  0  0  0  0  0  0  0  0  0
    7.7162    4.5422    0.0000 H   0  0  0  0  0  0  0  0  0  0  0  0
    3.4078    3.1261    0.0000 H   0  0  0  0  0  0  0  0  0  0  0  0
    8.1088    2.9272    0.0000 H   0  0  0  0  0  0  0  0  0  0  0  0
    1.4030    3.3520    0.0000 H   0  0  0  0  0  0  0  0  0  0  0  0
    1.4030    0.1121    0.0000 H   0  0  0  0  0  0  0  0  0  0  0  0
    0.0000    2.5420    0.0000 H   0  0  0  0  0  0  0  0  0  0  0  0
    0.0000    0.9221    0.0000 H   0  0  0  0  0  0  0  0  0  0  0  0
   11.1088    4.6592    0.0000 H   0  0  0  0  0  0  0  0  0  0  0  0
    8.6788    6.0622    0.0000 H   0  0  0  0  0  0  0  0  0  0  0  0
    4.1788    3.4641    0.0000 H   0  0  0  0  0  0  0  0  0  0  0  0
    4.9888    4.8671    0.0000 H   0  0  0  0  0  0  0  0  0  0  0  0
   11.9188    6.0622    0.0000 H   0  0  0  0  0  0  0  0  0  0  0  0
   11.1088    7.4651    0.0000 H   0  0  0  0  0  0  0  0  0  0  0  0
    7.5269   10.6400    0.0000 H   0  0  0  0  0  0  0  0  0  0  0  0
    7.5269   15.0049    0.0000 H   0  0  0  0  0  0  0  0  0  0  0  0
  1 21  1  0  0  0  0
  1 22  1  0  0  0  0
  2 38  1  0  0  0  0
  3 38  1  0  0  0  0
  4 38  1  0  0  0  0
  5 39  1  0  0  0  0
  6 39  1  0  0  0  0
  7 39  1  0  0  0  0
  8 40  1  0  0  0  0
  8 58  1  0  0  0  0
  9 41  1  0  0  0  0
  9 59  1  0  0  0  0
 10 40  2  0  0  0  0
 11 41  2  0  0  0  0
 12 20  1  0  0  0  0
 12 22  1  0  0  0  0
 12 46  1  0  0  0  0
 13 19  1  0  0  0  0
 13 28  1  0  0  0  0
 13 47  1  0  0  0  0
 14 26  2  0  0  0  0
 14 28  1  0  0  0  0
 15 28  2  0  0  0  0
 15 34  1  0  0  0  0
 16 32  1  0  0  0  0
 16 36  2  0  0  0  0
 17 37  3  0  0  0  0
 18 19  1  0  0  0  0
 18 23  1  0  0  0  0
 18 42  1  0  0  0  0
 18 43  1  0  0  0  0
 19 44  1  0  0  0  0
 19 45  1  0  0  0  0
 20 21  1  0  0  0  0
 20 25  2  0  0  0  0
 21 27  2  0  0  0  0
 22 24  2  0  0  0  0
 23 31  1  0  0  0  0
 23 32  2  0  0  0  0
 24 26  1  0  0  0  0
 24 37  1  0  0  0  0
 25 29  1  0  0  0  0
 25 48  1  0  0  0  0
 26 33  1  0  0  0  0
 27 30  1  0  0  0  0
 27 49  1  0  0  0  0
 29 30  2  0  0  0  0
 29 50  1  0  0  0  0
 30 51  1  0  0  0  0
 31 35  2  0  0  0  0
 31 52  1  0  0  0  0
 32 53  1  0  0  0  0
 33 34  2  0  0  0  0
 33 54  1  0  0  0  0
 34 55  1  0  0  0  0
 35 36  1  0  0  0  0
 35 56  1  0  0  0  0
 36 57  1  0  0  0  0
 38 40  1  0  0  0  0
 39 41  1  0  0  0  0
M  END
> <PUBCHEM_COMPOUND_CID>
11422034

> <PUBCHEM_COMPOUND_CANONICALIZED>
1

> <PUBCHEM_CACTVS_COMPLEXITY>
668

> <PUBCHEM_CACTVS_HBOND_ACCEPTOR>
17

> <PUBCHEM_CACTVS_HBOND_DONOR>
4

> <PUBCHEM_CACTVS_ROTATABLE_BOND>
5

> <PUBCHEM_CACTVS_SUBSKEYS>
AAADceB7ucBAAAAAAAAAAAAAAAAAAWAAAAA8WIAAAAAAAFgB8AAAHwQQCAAADAjB3hQ92ZbIEgi4BzT3bACigClxCrAJ2Lw4ZJiIqOLg2dGEJAhokALIyC8QAAAOAAAAAAAAAQAAAAAAAAACAAAAAAAAAA==

> <PUBCHEM_IUPAC_OPENEYE_NAME>
(2Z)-2-(3H-1,3-benzothiazol-2-ylidene)-2-[2-[2-(3-pyridyl)ethylamino]pyrimidin-4-yl]acetonitrile;2,2,2-trifluoroacetic acid

> <PUBCHEM_IUPAC_CAS_NAME>
(2Z)-2-(3H-1,3-benzothiazol-2-ylidene)-2-[2-[2-(3-pyridinyl)ethylamino]-4-pyrimidinyl]acetonitrile;2,2,2-trifluoroacetic acid

> <PUBCHEM_IUPAC_NAME_MARKUP>
(2<I>Z</I>)-2-(3<I>H</I>-1,3-benzothiazol-2-ylidene)-2-[2-(2-pyridin-3-ylethylamino)pyrimidin-4-yl]acetonitrile;2,2,2-trifluoroacetic acid

> <PUBCHEM_IUPAC_NAME>
(2Z)-2-(3H-1,3-benzothiazol-2-ylidene)-2-[2-(2-pyridin-3-ylethylamino)pyrimidin-4-yl]acetonitrile;2,2,2-trifluoroacetic acid

> <PUBCHEM_IUPAC_SYSTEMATIC_NAME>
(2Z)-2-(3H-1,3-benzothiazol-2-ylidene)-2-[2-(2-pyridin-3-ylethylamino)pyrimidin-4-yl]ethanenitrile;2,2,2-tris(fluoranyl)ethanoic acid

> <PUBCHEM_IUPAC_TRADITIONAL_NAME>
(2Z)-2-(3H-1,3-benzothiazol-2-ylidene)-2-[2-[2-(3-pyridyl)ethylamino]pyrimidin-4-yl]acetonitrile;2,2,2-trifluoroacetic acid

> <PUBCHEM_IUPAC_INCHI>
InChI=1S/C20H16N6S.2C2HF3O2/c21-12-15(19-25-17-5-1-2-6-18(17)27-19)16-8-11-24-20(26-16)23-10-7-14-4-3-9-22-13-14;2*3-2(4,5)1(6)7/h1-6,8-9,11,13,25H,7,10H2,(H,23,24,26);2*(H,6,7)/b19-15+;;

> <PUBCHEM_IUPAC_INCHIKEY>
LSRYQOKRGOFRBD-WTBAQZMLSA-N

> <PUBCHEM_EXACT_MASS>
600.10144322

> <PUBCHEM_MOLECULAR_FORMULA>
C24H18F6N6O4S

> <PUBCHEM_MOLECULAR_WEIGHT>
600.5

> <PUBCHEM_SMILES>
C1=CC=C2C(=C1)N/C(=C(/C#N)\C3=NC(=NC=C3)NCCC4=CN=CC=C4)/S2.C(=O)(C(F)(F)F)O.C(=O)(C(F)(F)F)O

> <PUBCHEM_OPENEYE_CAN_SMILES>
C1=CC=C2C(=C1)NC(=C(C#N)C3=NC(=NC=C3)NCCC4=CN=CC=C4)S2.C(=O)(C(F)(F)F)O.C(=O)(C(F)(F)F)O

> <PUBCHEM_OPENEYE_ISO_SMILES>
C1=CC=C2C(=C1)N/C(=C(/C#N)\C3=NC(=NC=C3)NCCC4=CN=CC=C4)/S2.C(=O)(C(F)(F)F)O.C(=O)(C(F)(F)F)O

> <PUBCHEM_CACTVS_TPSA>
186

> <PUBCHEM_MONOISOTOPIC_WEIGHT>
600.10144322

> <PUBCHEM_TOTAL_CHARGE>
0

> <PUBCHEM_HEAVY_ATOM_COUNT>
41

> <PUBCHEM_ATOM_DEF_STEREO_COUNT>
0

> <PUBCHEM_ATOM_UDEF_STEREO_COUNT>
0

> <PUBCHEM_BOND_DEF_STEREO_COUNT>
1

> <PUBCHEM_BOND_UDEF_STEREO_COUNT>
0

> <PUBCHEM_ISOTOPIC_ATOM_COUNT>
0

> <PUBCHEM_COMPONENT_COUNT>
3

> <PUBCHEM_CACTVS_TAUTO_COUNT>
-1

> <PUBCHEM_COORDINATE_TYPE>
1
5
255

> <PUBCHEM_BONDANNOTATIONS>
14  26  8
14  28  8
15  28  8
15  34  8
16  32  8
16  36  8
20  21  8
20  25  8
21  27  8
23  31  8
23  32  8
25  29  8
26  33  8
27  30  8
29  30  8
31  35  8
33  34  8
35  36  8

$$$$
