49830628
  -OEChem-03202503212D

 50 53  0     0  0  0  0  0  0999 V2000
   10.1017    6.4046    0.0000 Br  0  0  0  0  0  0  0  0  0  0  0  0
    8.8590    0.9931    0.0000 S   0  0  0  0  0  0  0  0  0  0  0  0
    7.0468   -2.2022    0.0000 O   0  0  0  0  0  0  0  0  0  0  0  0
    3.5827   -5.2022    0.0000 N   0  0  0  0  0  0  0  0  0  0  0  0
    5.3147   -2.2022    0.0000 N   0  0  0  0  0  0  0  0  0  0  0  0
    6.1808    2.2978    0.0000 N   0  0  0  0  0  0  0  0  0  0  0  0
    7.0468    3.7978    0.0000 N   0  0  0  0  0  0  0  0  0  0  0  0
    2.0000   -5.5386    0.0000 N   0  0  0  0  0  0  0  0  0  0  0  0
    4.4487   -3.7022    0.0000 C   0  0  0  0  0  0  0  0  0  0  0  0
    4.4487   -4.7022    0.0000 C   0  0  0  0  0  0  0  0  0  0  0  0
    7.9128    2.2978    0.0000 C   0  0  0  0  0  0  0  0  0  0  0  0
    8.8590    2.6025    0.0000 C   0  0  0  0  0  0  0  0  0  0  0  0
    7.9128    1.2978    0.0000 C   0  0  0  0  0  0  0  0  0  0  0  0
    5.3147   -3.2022    0.0000 C   0  0  0  0  0  0  0  0  0  0  0  0
    7.0468    0.7978    0.0000 C   0  0  0  0  0  0  0  0  0  0  0  0
    9.1697    3.5531    0.0000 C   0  0  0  0  0  0  0  0  0  0  0  0
    7.0468    2.7978    0.0000 C   0  0  0  0  0  0  0  0  0  0  0  0
    9.4426    1.7978    0.0000 C   0  0  0  0  0  0  0  0  0  0  0  0
    6.1808    1.2978    0.0000 C   0  0  0  0  0  0  0  0  0  0  0  0
    7.0468   -0.2022    0.0000 C   0  0  0  0  0  0  0  0  0  0  0  0
    3.4782   -6.1967    0.0000 C   0  0  0  0  0  0  0  0  0  0  0  0
    6.1808   -1.7022    0.0000 C   0  0  0  0  0  0  0  0  0  0  0  0
    2.6691   -4.7954    0.0000 C   0  0  0  0  0  0  0  0  0  0  0  0
   10.1482    3.7593    0.0000 C   0  0  0  0  0  0  0  0  0  0  0  0
    8.5018    4.2974    0.0000 C   0  0  0  0  0  0  0  0  0  0  0  0
    6.1808   -0.7022    0.0000 C   0  0  0  0  0  0  0  0  0  0  0  0
    2.5000   -6.4046    0.0000 C   0  0  0  0  0  0  0  0  0  0  0  0
   10.4589    4.7098    0.0000 C   0  0  0  0  0  0  0  0  0  0  0  0
    8.8125    5.2479    0.0000 C   0  0  0  0  0  0  0  0  0  0  0  0
    9.7910    5.4541    0.0000 C   0  0  0  0  0  0  0  0  0  0  0  0
    4.2366   -3.1196    0.0000 H   0  0  0  0  0  0  0  0  0  0  0  0
    3.8381   -3.8098    0.0000 H   0  0  0  0  0  0  0  0  0  0  0  0
    4.6608   -5.2848    0.0000 H   0  0  0  0  0  0  0  0  0  0  0  0
    5.0593   -4.5945    0.0000 H   0  0  0  0  0  0  0  0  0  0  0  0
    5.5268   -3.7848    0.0000 H   0  0  0  0  0  0  0  0  0  0  0  0
    5.9253   -3.0945    0.0000 H   0  0  0  0  0  0  0  0  0  0  0  0
   10.0626    1.7978    0.0000 H   0  0  0  0  0  0  0  0  0  0  0  0
    4.7778   -1.8922    0.0000 H   0  0  0  0  0  0  0  0  0  0  0  0
    5.6438    0.9878    0.0000 H   0  0  0  0  0  0  0  0  0  0  0  0
    7.5837   -0.5122    0.0000 H   0  0  0  0  0  0  0  0  0  0  0  0
    3.9389   -6.6116    0.0000 H   0  0  0  0  0  0  0  0  0  0  0  0
    2.5402   -4.1890    0.0000 H   0  0  0  0  0  0  0  0  0  0  0  0
   10.5623    3.2978    0.0000 H   0  0  0  0  0  0  0  0  0  0  0  0
    7.8952    4.1695    0.0000 H   0  0  0  0  0  0  0  0  0  0  0  0
    5.6438   -0.3922    0.0000 H   0  0  0  0  0  0  0  0  0  0  0  0
    2.2478   -6.9710    0.0000 H   0  0  0  0  0  0  0  0  0  0  0  0
    6.5098    4.1078    0.0000 H   0  0  0  0  0  0  0  0  0  0  0  0
    7.5837    4.1078    0.0000 H   0  0  0  0  0  0  0  0  0  0  0  0
   11.0655    4.8377    0.0000 H   0  0  0  0  0  0  0  0  0  0  0  0
    8.3984    5.7094    0.0000 H   0  0  0  0  0  0  0  0  0  0  0  0
  1 30  1  0  0  0  0
  2 13  1  0  0  0  0
  2 18  1  0  0  0  0
  3 22  2  0  0  0  0
  4 10  1  0  0  0  0
  4 21  1  0  0  0  0
  4 23  1  0  0  0  0
  5 14  1  0  0  0  0
  5 22  1  0  0  0  0
  5 38  1  0  0  0  0
  6 17  2  0  0  0  0
  6 19  1  0  0  0  0
  7 17  1  0  0  0  0
  7 47  1  0  0  0  0
  7 48  1  0  0  0  0
  8 23  2  0  0  0  0
  8 27  1  0  0  0  0
  9 10  1  0  0  0  0
  9 14  1  0  0  0  0
  9 31  1  0  0  0  0
  9 32  1  0  0  0  0
 10 33  1  0  0  0  0
 10 34  1  0  0  0  0
 11 12  1  0  0  0  0
 11 13  2  0  0  0  0
 11 17  1  0  0  0  0
 12 16  1  0  0  0  0
 12 18  2  0  0  0  0
 13 15  1  0  0  0  0
 14 35  1  0  0  0  0
 14 36  1  0  0  0  0
 15 19  2  0  0  0  0
 15 20  1  0  0  0  0
 16 24  2  0  0  0  0
 16 25  1  0  0  0  0
 18 37  1  0  0  0  0
 19 39  1  0  0  0  0
 20 26  2  3  0  0  0
 20 40  1  0  0  0  0
 21 27  2  0  0  0  0
 21 41  1  0  0  0  0
 22 26  1  0  0  0  0
 23 42  1  0  0  0  0
 24 28  1  0  0  0  0
 24 43  1  0  0  0  0
 25 29  2  0  0  0  0
 25 44  1  0  0  0  0
 26 45  1  0  0  0  0
 27 46  1  0  0  0  0
 28 30  2  0  0  0  0
 28 49  1  0  0  0  0
 29 30  1  0  0  0  0
 29 50  1  0  0  0  0
M  END
> <PUBCHEM_COMPOUND_CID>
49830628

> <PUBCHEM_COMPOUND_CANONICALIZED>
1

> <PUBCHEM_CACTVS_COMPLEXITY>
600

> <PUBCHEM_CACTVS_HBOND_ACCEPTOR>
5

> <PUBCHEM_CACTVS_HBOND_DONOR>
2

> <PUBCHEM_CACTVS_ROTATABLE_BOND>
7

> <PUBCHEM_CACTVS_SUBSKEYS>
AAADceB7oABAEAAAAAAAAAAAAAAAAWJAAAA8QAAAAAAAAFgB/gAAHgRQAAABrADF2gS9sdfMEAisAjN3dACDgK0xGrQJ2LA4dPiIaGLg2ZGUIAxolgLoy7cQgMAOggAAAAAAAAAEAAAAAAAAAAAAAAAAAA==

> <PUBCHEM_IUPAC_OPENEYE_NAME>
3-[4-amino-3-(4-bromophenyl)thieno[3,2-c]pyridin-7-yl]-N-(3-imidazol-1-ylpropyl)prop-2-enamide

> <PUBCHEM_IUPAC_CAS_NAME>
3-[4-amino-3-(4-bromophenyl)-7-thieno[3,2-c]pyridinyl]-N-[3-(1-imidazolyl)propyl]-2-propenamide

> <PUBCHEM_IUPAC_NAME_MARKUP>
3-[4-amino-3-(4-bromophenyl)thieno[3,2-c]pyridin-7-yl]-<I>N</I>-(3-imidazol-1-ylpropyl)prop-2-enamide

> <PUBCHEM_IUPAC_NAME>
3-[4-amino-3-(4-bromophenyl)thieno[3,2-c]pyridin-7-yl]-N-(3-imidazol-1-ylpropyl)prop-2-enamide

> <PUBCHEM_IUPAC_SYSTEMATIC_NAME>
3-[4-azanyl-3-(4-bromophenyl)thieno[3,2-c]pyridin-7-yl]-N-(3-imidazol-1-ylpropyl)prop-2-enamide

> <PUBCHEM_IUPAC_TRADITIONAL_NAME>
3-[4-amino-3-(4-bromophenyl)thieno[3,2-c]pyridin-7-yl]-N-(3-imidazol-1-ylpropyl)acrylamide

> <PUBCHEM_IUPAC_INCHI>
InChI=1S/C22H20BrN5OS/c23-17-5-2-15(3-6-17)18-13-30-21-16(12-27-22(24)20(18)21)4-7-19(29)26-8-1-10-28-11-9-25-14-28/h2-7,9,11-14H,1,8,10H2,(H2,24,27)(H,26,29)

> <PUBCHEM_IUPAC_INCHIKEY>
CXBBWVXSZINRCS-UHFFFAOYSA-N

> <PUBCHEM_XLOGP3_AA>
3.6

> <PUBCHEM_EXACT_MASS>
481.05719

> <PUBCHEM_MOLECULAR_FORMULA>
C22H20BrN5OS

> <PUBCHEM_MOLECULAR_WEIGHT>
482.4

> <PUBCHEM_SMILES>
C1=CC(=CC=C1C2=CSC3=C2C(=NC=C3C=CC(=O)NCCCN4C=CN=C4)N)Br

> <PUBCHEM_OPENEYE_CAN_SMILES>
C1=CC(=CC=C1C2=CSC3=C2C(=NC=C3C=CC(=O)NCCCN4C=CN=C4)N)Br

> <PUBCHEM_OPENEYE_ISO_SMILES>
C1=CC(=CC=C1C2=CSC3=C2C(=NC=C3C=CC(=O)NCCCN4C=CN=C4)N)Br

> <PUBCHEM_CACTVS_TPSA>
114

> <PUBCHEM_MONOISOTOPIC_WEIGHT>
481.05719

> <PUBCHEM_TOTAL_CHARGE>
0

> <PUBCHEM_HEAVY_ATOM_COUNT>
30

> <PUBCHEM_ATOM_DEF_STEREO_COUNT>
0

> <PUBCHEM_ATOM_UDEF_STEREO_COUNT>
0

> <PUBCHEM_BOND_DEF_STEREO_COUNT>
0

> <PUBCHEM_BOND_UDEF_STEREO_COUNT>
1

> <PUBCHEM_ISOTOPIC_ATOM_COUNT>
0

> <PUBCHEM_COMPONENT_COUNT>
1

> <PUBCHEM_CACTVS_TAUTO_COUNT>
-1

> <PUBCHEM_COORDINATE_TYPE>
1
5
255

> <PUBCHEM_BONDANNOTATIONS>
11  12  8
11  13  8
11  17  8
12  18  8
13  15  8
15  19  8
16  24  8
16  25  8
2  13  8
2  18  8
20  26  1
21  27  8
24  28  8
25  29  8
28  30  8
29  30  8
4  21  8
4  23  8
6  17  8
6  19  8
8  23  8
8  27  8

$$$$
