25164885
  -OEChem-03202504232D

 38 41  0     0  0  0  0  0  0999 V2000
    5.5714    2.5027    0.0000 O   0  0  0  0  0  0  0  0  0  0  0  0
    5.5594   -0.8290    0.0000 O   0  0  0  0  0  0  0  0  0  0  0  0
    3.9890    1.7982    0.0000 N   0  0  0  0  0  0  0  0  0  0  0  0
    4.8903   -0.0859    0.0000 N   0  0  0  0  0  0  0  0  0  0  0  0
   10.0173   -2.2270    0.0000 N   0  0  0  0  0  0  0  0  0  0  0  0
   10.6009   -1.4223    0.0000 N   0  0  0  0  0  0  0  0  0  0  0  0
    2.0000    2.0073    0.0000 C   0  0  0  0  0  0  0  0  0  0  0  0
    2.5878    2.8163    0.0000 C   0  0  0  0  0  0  0  0  0  0  0  0
    2.4067    1.0938    0.0000 C   0  0  0  0  0  0  0  0  0  0  0  0
    3.5823    2.7118    0.0000 C   0  0  0  0  0  0  0  0  0  0  0  0
    3.4013    0.9892    0.0000 C   0  0  0  0  0  0  0  0  0  0  0  0
    4.9836    1.6937    0.0000 C   0  0  0  0  0  0  0  0  0  0  0  0
    5.3903    0.7802    0.0000 C   0  0  0  0  0  0  0  0  0  0  0  0
    6.3684    0.5723    0.0000 C   0  0  0  0  0  0  0  0  0  0  0  0
    6.4730   -0.4223    0.0000 C   0  0  0  0  0  0  0  0  0  0  0  0
    7.3390   -0.9223    0.0000 C   0  0  0  0  0  0  0  0  0  0  0  0
    9.0710   -0.9223    0.0000 C   0  0  0  0  0  0  0  0  0  0  0  0
    8.2050   -0.4223    0.0000 C   0  0  0  0  0  0  0  0  0  0  0  0
    9.0710   -1.9223    0.0000 C   0  0  0  0  0  0  0  0  0  0  0  0
    7.3390   -1.9223    0.0000 C   0  0  0  0  0  0  0  0  0  0  0  0
    8.2050   -2.4223    0.0000 C   0  0  0  0  0  0  0  0  0  0  0  0
   10.0173   -0.6175    0.0000 C   0  0  0  0  0  0  0  0  0  0  0  0
    1.5693    2.4533    0.0000 H   0  0  0  0  0  0  0  0  0  0  0  0
    1.4860    1.6606    0.0000 H   0  0  0  0  0  0  0  0  0  0  0  0
    2.7587    3.4123    0.0000 H   0  0  0  0  0  0  0  0  0  0  0  0
    2.0305    3.0881    0.0000 H   0  0  0  0  0  0  0  0  0  0  0  0
    1.8052    0.9438    0.0000 H   0  0  0  0  0  0  0  0  0  0  0  0
    2.4500    0.4753    0.0000 H   0  0  0  0  0  0  0  0  0  0  0  0
    4.1839    2.8618    0.0000 H   0  0  0  0  0  0  0  0  0  0  0  0
    3.5391    3.3303    0.0000 H   0  0  0  0  0  0  0  0  0  0  0  0
    3.2304    0.3932    0.0000 H   0  0  0  0  0  0  0  0  0  0  0  0
    3.9585    0.7174    0.0000 H   0  0  0  0  0  0  0  0  0  0  0  0
    6.8292    0.9871    0.0000 H   0  0  0  0  0  0  0  0  0  0  0  0
    8.2050    0.1977    0.0000 H   0  0  0  0  0  0  0  0  0  0  0  0
    6.8021   -2.2323    0.0000 H   0  0  0  0  0  0  0  0  0  0  0  0
    8.2050   -3.0423    0.0000 H   0  0  0  0  0  0  0  0  0  0  0  0
   10.2099   -0.0282    0.0000 H   0  0  0  0  0  0  0  0  0  0  0  0
   10.2099   -2.8163    0.0000 H   0  0  0  0  0  0  0  0  0  0  0  0
  1 12  2  0  0  0  0
  2  4  1  0  0  0  0
  2 15  1  0  0  0  0
  3 10  1  0  0  0  0
  3 11  1  0  0  0  0
  3 12  1  0  0  0  0
  4 13  2  0  0  0  0
  5  6  1  0  0  0  0
  5 19  1  0  0  0  0
  5 38  1  0  0  0  0
  6 22  2  0  0  0  0
  7  8  1  0  0  0  0
  7  9  1  0  0  0  0
  7 23  1  0  0  0  0
  7 24  1  0  0  0  0
  8 10  1  0  0  0  0
  8 25  1  0  0  0  0
  8 26  1  0  0  0  0
  9 11  1  0  0  0  0
  9 27  1  0  0  0  0
  9 28  1  0  0  0  0
 10 29  1  0  0  0  0
 10 30  1  0  0  0  0
 11 31  1  0  0  0  0
 11 32  1  0  0  0  0
 12 13  1  0  0  0  0
 13 14  1  0  0  0  0
 14 15  2  0  0  0  0
 14 33  1  0  0  0  0
 15 16  1  0  0  0  0
 16 18  2  0  0  0  0
 16 20  1  0  0  0  0
 17 18  1  0  0  0  0
 17 19  2  0  0  0  0
 17 22  1  0  0  0  0
 18 34  1  0  0  0  0
 19 21  1  0  0  0  0
 20 21  2  0  0  0  0
 20 35  1  0  0  0  0
 21 36  1  0  0  0  0
 22 37  1  0  0  0  0
M  END
> <PUBCHEM_COMPOUND_CID>
25164885

> <PUBCHEM_COMPOUND_CANONICALIZED>
1

> <PUBCHEM_CACTVS_COMPLEXITY>
413

> <PUBCHEM_CACTVS_HBOND_ACCEPTOR>
4

> <PUBCHEM_CACTVS_HBOND_DONOR>
1

> <PUBCHEM_CACTVS_ROTATABLE_BOND>
2

> <PUBCHEM_CACTVS_SUBSKEYS>
AAADceB7sAAAAAAAAAAAAAAAAAAAAWLAAAA8QAAAAAAAAFgB/AAAHgAcAAAADAzBngQ8xPNzAACrA7V3UgCSBAAmogA4uSG+bNoIZrqA1dOUtYhm3hmIyce/2eGeCAACAAACAAAQAAQAAAQAAAAAAAAAAA==

> <PUBCHEM_IUPAC_OPENEYE_NAME>
[5-(1H-indazol-5-yl)isoxazol-3-yl]-(1-piperidyl)methanone

> <PUBCHEM_IUPAC_CAS_NAME>
[5-(1H-indazol-5-yl)-3-isoxazolyl]-(1-piperidinyl)methanone

> <PUBCHEM_IUPAC_NAME_MARKUP>
[5-(1<I>H</I>-indazol-5-yl)-1,2-oxazol-3-yl]-piperidin-1-ylmethanone

> <PUBCHEM_IUPAC_NAME>
[5-(1H-indazol-5-yl)-1,2-oxazol-3-yl]-piperidin-1-ylmethanone

> <PUBCHEM_IUPAC_SYSTEMATIC_NAME>
[5-(1H-indazol-5-yl)-1,2-oxazol-3-yl]-piperidin-1-yl-methanone

> <PUBCHEM_IUPAC_TRADITIONAL_NAME>
[5-(1H-indazol-5-yl)isoxazol-3-yl]-piperidino-methanone

> <PUBCHEM_IUPAC_INCHI>
InChI=1S/C16H16N4O2/c21-16(20-6-2-1-3-7-20)14-9-15(22-19-14)11-4-5-13-12(8-11)10-17-18-13/h4-5,8-10H,1-3,6-7H2,(H,17,18)

> <PUBCHEM_IUPAC_INCHIKEY>
ZVZCNOQSOULQEK-UHFFFAOYSA-N

> <PUBCHEM_XLOGP3_AA>
2.3

> <PUBCHEM_EXACT_MASS>
296.12732577

> <PUBCHEM_MOLECULAR_FORMULA>
C16H16N4O2

> <PUBCHEM_MOLECULAR_WEIGHT>
296.32

> <PUBCHEM_SMILES>
C1CCN(CC1)C(=O)C2=NOC(=C2)C3=CC4=C(C=C3)NN=C4

> <PUBCHEM_OPENEYE_CAN_SMILES>
C1CCN(CC1)C(=O)C2=NOC(=C2)C3=CC4=C(C=C3)NN=C4

> <PUBCHEM_OPENEYE_ISO_SMILES>
C1CCN(CC1)C(=O)C2=NOC(=C2)C3=CC4=C(C=C3)NN=C4

> <PUBCHEM_CACTVS_TPSA>
75

> <PUBCHEM_MONOISOTOPIC_WEIGHT>
296.12732577

> <PUBCHEM_TOTAL_CHARGE>
0

> <PUBCHEM_HEAVY_ATOM_COUNT>
22

> <PUBCHEM_ATOM_DEF_STEREO_COUNT>
0

> <PUBCHEM_ATOM_UDEF_STEREO_COUNT>
0

> <PUBCHEM_BOND_DEF_STEREO_COUNT>
0

> <PUBCHEM_BOND_UDEF_STEREO_COUNT>
0

> <PUBCHEM_ISOTOPIC_ATOM_COUNT>
0

> <PUBCHEM_COMPONENT_COUNT>
1

> <PUBCHEM_CACTVS_TAUTO_COUNT>
-1

> <PUBCHEM_COORDINATE_TYPE>
1
5
255

> <PUBCHEM_BONDANNOTATIONS>
13  14  8
14  15  8
16  18  8
16  20  8
17  18  8
17  19  8
17  22  8
19  21  8
2  15  8
2  4  8
20  21  8
4  13  8
5  19  8
5  6  8
6  22  8

$$$$
