49830745
  -OEChem-03202503162D

 50 52  0     1  0  0  0  0  0999 V2000
    4.5981    0.2500    0.0000 O   0  0  0  0  0  0  0  0  0  0  0  0
    7.1962   -1.2500    0.0000 O   0  0  0  0  0  0  0  0  0  0  0  0
    4.5981   -1.7500    0.0000 N   0  0  0  0  0  0  0  0  0  0  0  0
    8.9282   -3.2500    0.0000 N   0  0  0  0  0  0  0  0  0  0  0  0
   14.1244   -0.2500    0.0000 N   0  0  0  0  0  0  0  0  0  0  0  0
    5.4641   -1.2500    0.0000 C   0  0  3  0  0  0  0  0  0  0  0  0
    5.4641   -0.2500    0.0000 C   0  0  0  0  0  0  0  0  0  0  0  0
    6.3301   -1.7500    0.0000 C   0  0  0  0  0  0  0  0  0  0  0  0
    4.5981    1.2500    0.0000 C   0  0  0  0  0  0  0  0  0  0  0  0
    3.7320    1.7500    0.0000 C   0  0  0  0  0  0  0  0  0  0  0  0
    8.0622   -1.7500    0.0000 C   0  0  0  0  0  0  0  0  0  0  0  0
    8.9282   -1.2500    0.0000 C   0  0  0  0  0  0  0  0  0  0  0  0
    3.7320    2.7500    0.0000 C   0  0  0  0  0  0  0  0  0  0  0  0
    2.8660    1.2500    0.0000 C   0  0  0  0  0  0  0  0  0  0  0  0
    9.7942   -1.7500    0.0000 C   0  0  0  0  0  0  0  0  0  0  0  0
    8.0622   -2.7500    0.0000 C   0  0  0  0  0  0  0  0  0  0  0  0
    2.8660    3.2500    0.0000 C   0  0  0  0  0  0  0  0  0  0  0  0
    2.0000    1.7500    0.0000 C   0  0  0  0  0  0  0  0  0  0  0  0
    9.7942   -2.7500    0.0000 C   0  0  0  0  0  0  0  0  0  0  0  0
   10.6603   -1.2500    0.0000 C   0  0  0  0  0  0  0  0  0  0  0  0
    2.0000    2.7500    0.0000 C   0  0  0  0  0  0  0  0  0  0  0  0
   11.5263   -1.7500    0.0000 C   0  0  0  0  0  0  0  0  0  0  0  0
   12.3923   -1.2500    0.0000 C   0  0  0  0  0  0  0  0  0  0  0  0
   12.3923   -0.2500    0.0000 C   0  0  0  0  0  0  0  0  0  0  0  0
   13.2583   -1.7500    0.0000 C   0  0  0  0  0  0  0  0  0  0  0  0
   13.2583    0.2500    0.0000 C   0  0  0  0  0  0  0  0  0  0  0  0
   14.1244   -1.2500    0.0000 C   0  0  0  0  0  0  0  0  0  0  0  0
    5.4641   -1.8700    0.0000 H   0  0  0  0  0  0  0  0  0  0  0  0
    6.0747   -0.3577    0.0000 H   0  0  0  0  0  0  0  0  0  0  0  0
    5.6762    0.3326    0.0000 H   0  0  0  0  0  0  0  0  0  0  0  0
    5.9316   -2.2250    0.0000 H   0  0  0  0  0  0  0  0  0  0  0  0
    6.7287   -2.2250    0.0000 H   0  0  0  0  0  0  0  0  0  0  0  0
    5.2087    1.1423    0.0000 H   0  0  0  0  0  0  0  0  0  0  0  0
    4.8101    1.8326    0.0000 H   0  0  0  0  0  0  0  0  0  0  0  0
    4.0611   -1.4400    0.0000 H   0  0  0  0  0  0  0  0  0  0  0  0
    4.5981   -2.3700    0.0000 H   0  0  0  0  0  0  0  0  0  0  0  0
    8.9282   -0.6300    0.0000 H   0  0  0  0  0  0  0  0  0  0  0  0
    4.2690    3.0600    0.0000 H   0  0  0  0  0  0  0  0  0  0  0  0
    2.8660    0.6300    0.0000 H   0  0  0  0  0  0  0  0  0  0  0  0
    7.5252   -3.0600    0.0000 H   0  0  0  0  0  0  0  0  0  0  0  0
    2.8660    3.8700    0.0000 H   0  0  0  0  0  0  0  0  0  0  0  0
    1.4631    1.4400    0.0000 H   0  0  0  0  0  0  0  0  0  0  0  0
   10.3312   -3.0600    0.0000 H   0  0  0  0  0  0  0  0  0  0  0  0
   10.6603   -0.6300    0.0000 H   0  0  0  0  0  0  0  0  0  0  0  0
    1.4631    3.0600    0.0000 H   0  0  0  0  0  0  0  0  0  0  0  0
   11.5263   -2.3700    0.0000 H   0  0  0  0  0  0  0  0  0  0  0  0
   11.8554    0.0600    0.0000 H   0  0  0  0  0  0  0  0  0  0  0  0
   13.2583   -2.3700    0.0000 H   0  0  0  0  0  0  0  0  0  0  0  0
   13.2583    0.8700    0.0000 H   0  0  0  0  0  0  0  0  0  0  0  0
   14.6613   -1.5600    0.0000 H   0  0  0  0  0  0  0  0  0  0  0  0
  1  7  1  0  0  0  0
  1  9  1  0  0  0  0
  2  8  1  0  0  0  0
  2 11  1  0  0  0  0
  3  6  1  0  0  0  0
  3 35  1  0  0  0  0
  3 36  1  0  0  0  0
  4 16  1  0  0  0  0
  4 19  2  0  0  0  0
  5 26  2  0  0  0  0
  5 27  1  0  0  0  0
  6  7  1  0  0  0  0
  6  8  1  0  0  0  0
  6 28  1  0  0  0  0
  7 29  1  0  0  0  0
  7 30  1  0  0  0  0
  8 31  1  0  0  0  0
  8 32  1  0  0  0  0
  9 10  1  0  0  0  0
  9 33  1  0  0  0  0
  9 34  1  0  0  0  0
 10 13  2  0  0  0  0
 10 14  1  0  0  0  0
 11 12  1  0  0  0  0
 11 16  2  0  0  0  0
 12 15  2  0  0  0  0
 12 37  1  0  0  0  0
 13 17  1  0  0  0  0
 13 38  1  0  0  0  0
 14 18  2  0  0  0  0
 14 39  1  0  0  0  0
 15 19  1  0  0  0  0
 15 20  1  0  0  0  0
 16 40  1  0  0  0  0
 17 21  2  0  0  0  0
 17 41  1  0  0  0  0
 18 21  1  0  0  0  0
 18 42  1  0  0  0  0
 19 43  1  0  0  0  0
 20 22  2  3  0  0  0
 20 44  1  0  0  0  0
 21 45  1  0  0  0  0
 22 23  1  0  0  0  0
 22 46  1  0  0  0  0
 23 24  2  0  0  0  0
 23 25  1  0  0  0  0
 24 26  1  0  0  0  0
 24 47  1  0  0  0  0
 25 27  2  0  0  0  0
 25 48  1  0  0  0  0
 26 49  1  0  0  0  0
 27 50  1  0  0  0  0
M  END
> <PUBCHEM_COMPOUND_CID>
49830745

> <PUBCHEM_COMPOUND_CANONICALIZED>
1

> <PUBCHEM_CACTVS_COMPLEXITY>
420

> <PUBCHEM_CACTVS_HBOND_ACCEPTOR>
5

> <PUBCHEM_CACTVS_HBOND_DONOR>
1

> <PUBCHEM_CACTVS_ROTATABLE_BOND>
9

> <PUBCHEM_CACTVS_SUBSKEYS>
AAADceB7MAAAAAAAAAAAAAAAAAAAAAAAAAA8WIAAAAAAAAAB8AAAHgAQAAAADCzhmgY8hpJIFACgAjBnRASCiCAxYiAI2KA/bJgOJuLEsZuHOCjl0BHY6AewwCAOAAAAAAAAAAAAAAAAAAAAAAAAAAAAAA==

> <PUBCHEM_IUPAC_OPENEYE_NAME>
1-benzyloxy-3-[[5-[2-(4-pyridyl)vinyl]-3-pyridyl]oxy]propan-2-amine

> <PUBCHEM_IUPAC_CAS_NAME>
1-phenylmethoxy-3-[[5-(2-pyridin-4-ylethenyl)-3-pyridinyl]oxy]-2-propanamine

> <PUBCHEM_IUPAC_NAME_MARKUP>
1-phenylmethoxy-3-[5-(2-pyridin-4-ylethenyl)pyridin-3-yl]oxypropan-2-amine

> <PUBCHEM_IUPAC_NAME>
1-phenylmethoxy-3-[5-(2-pyridin-4-ylethenyl)pyridin-3-yl]oxypropan-2-amine

> <PUBCHEM_IUPAC_SYSTEMATIC_NAME>
1-phenylmethoxy-3-[5-(2-pyridin-4-ylethenyl)pyridin-3-yl]oxy-propan-2-amine

> <PUBCHEM_IUPAC_TRADITIONAL_NAME>
[1-(benzoxymethyl)-2-[[5-[2-(4-pyridyl)vinyl]-3-pyridyl]oxy]ethyl]amine

> <PUBCHEM_IUPAC_INCHI>
InChI=1S/C22H23N3O2/c23-21(16-26-15-19-4-2-1-3-5-19)17-27-22-12-20(13-25-14-22)7-6-18-8-10-24-11-9-18/h1-14,21H,15-17,23H2

> <PUBCHEM_IUPAC_INCHIKEY>
XFTPNRUQKBIHDT-UHFFFAOYSA-N

> <PUBCHEM_XLOGP3_AA>
2.5

> <PUBCHEM_EXACT_MASS>
361.17902698

> <PUBCHEM_MOLECULAR_FORMULA>
C22H23N3O2

> <PUBCHEM_MOLECULAR_WEIGHT>
361.4

> <PUBCHEM_SMILES>
C1=CC=C(C=C1)COCC(COC2=CN=CC(=C2)C=CC3=CC=NC=C3)N

> <PUBCHEM_OPENEYE_CAN_SMILES>
C1=CC=C(C=C1)COCC(COC2=CN=CC(=C2)C=CC3=CC=NC=C3)N

> <PUBCHEM_OPENEYE_ISO_SMILES>
C1=CC=C(C=C1)COCC(COC2=CN=CC(=C2)C=CC3=CC=NC=C3)N

> <PUBCHEM_CACTVS_TPSA>
70.3

> <PUBCHEM_MONOISOTOPIC_WEIGHT>
361.17902698

> <PUBCHEM_TOTAL_CHARGE>
0

> <PUBCHEM_HEAVY_ATOM_COUNT>
27

> <PUBCHEM_ATOM_DEF_STEREO_COUNT>
0

> <PUBCHEM_ATOM_UDEF_STEREO_COUNT>
1

> <PUBCHEM_BOND_DEF_STEREO_COUNT>
0

> <PUBCHEM_BOND_UDEF_STEREO_COUNT>
1

> <PUBCHEM_ISOTOPIC_ATOM_COUNT>
0

> <PUBCHEM_COMPONENT_COUNT>
1

> <PUBCHEM_CACTVS_TAUTO_COUNT>
-1

> <PUBCHEM_COORDINATE_TYPE>
1
5
255

> <PUBCHEM_BONDANNOTATIONS>
10  13  8
10  14  8
11  12  8
11  16  8
12  15  8
13  17  8
14  18  8
15  19  8
17  21  8
18  21  8
20  22  1
23  24  8
23  25  8
24  26  8
25  27  8
6  3  3
4  16  8
4  19  8
5  26  8
5  27  8

$$$$
