20261448
  -OEChem-03202502582D

 43 46  0     1  0  0  0  0  0999 V2000
    2.5836   -2.4881    0.0000 S   0  0  0  0  0  0  0  0  0  0  0  0
    7.0479    0.8617    0.0000 F   0  0  0  0  0  0  0  0  0  0  0  0
    6.1279   -2.6834    0.0000 O   0  0  0  0  0  0  0  0  0  0  0  0
    5.2619   -4.1834    0.0000 O   0  0  0  0  0  0  0  0  0  0  0  0
    3.5298   -4.1834    0.0000 O   0  0  0  0  0  0  0  0  0  0  0  0
    5.2740    1.8859    0.0000 N   0  0  3  0  0  0  0  0  0  0  0  0
    3.5298   -1.1833    0.0000 N   0  0  0  0  0  0  0  0  0  0  0  0
    6.3527    4.2379    0.0000 N   0  0  0  0  0  0  0  0  0  0  0  0
    5.7680    3.4267    0.0000 C   0  0  3  0  0  0  0  0  0  0  0  0
    6.0807    2.4768    0.0000 C   0  0  0  0  0  0  0  0  0  0  0  0
    4.7680    3.4228    0.0000 C   0  0  0  0  0  0  0  0  0  0  0  0
    4.4627    2.4706    0.0000 C   0  0  0  0  0  0  0  0  0  0  0  0
    2.5836   -0.8786    0.0000 C   0  0  3  0  0  0  0  0  0  0  0  0
    5.2778    0.8859    0.0000 C   0  0  0  0  0  0  0  0  0  0  0  0
    4.3958   -0.6834    0.0000 C   0  0  0  0  0  0  0  0  0  0  0  0
    3.5298   -2.1834    0.0000 C   0  0  0  0  0  0  0  0  0  0  0  0
    2.0000   -1.6834    0.0000 C   0  0  0  0  0  0  0  0  0  0  0  0
    4.3798    0.3582    0.0000 C   0  0  0  0  0  0  0  0  0  0  0  0
    5.2619   -1.1833    0.0000 C   0  0  0  0  0  0  0  0  0  0  0  0
    6.1799    0.3651    0.0000 C   0  0  0  0  0  0  0  0  0  0  0  0
    4.3958   -2.6834    0.0000 C   0  0  0  0  0  0  0  0  0  0  0  0
    2.2729    0.0719    0.0000 C   0  0  0  0  0  0  0  0  0  0  0  0
    6.1719   -0.6765    0.0000 C   0  0  0  0  0  0  0  0  0  0  0  0
    5.2619   -2.1834    0.0000 C   0  0  0  0  0  0  0  0  0  0  0  0
    4.3958   -3.6834    0.0000 C   0  0  0  0  0  0  0  0  0  0  0  0
    5.4844    3.9780    0.0000 H   0  0  0  0  0  0  0  0  0  0  0  0
    6.3928    1.9411    0.0000 H   0  0  0  0  0  0  0  0  0  0  0  0
    6.6461    2.7312    0.0000 H   0  0  0  0  0  0  0  0  0  0  0  0
    4.8305    4.0396    0.0000 H   0  0  0  0  0  0  0  0  0  0  0  0
    4.1611    3.5494    0.0000 H   0  0  0  0  0  0  0  0  0  0  0  0
    3.8953    2.7205    0.0000 H   0  0  0  0  0  0  0  0  0  0  0  0
    4.1548    1.9324    0.0000 H   0  0  0  0  0  0  0  0  0  0  0  0
    3.0211   -0.4393    0.0000 H   0  0  0  0  0  0  0  0  0  0  0  0
    1.5391   -1.2686    0.0000 H   0  0  0  0  0  0  0  0  0  0  0  0
    1.5391   -2.0981    0.0000 H   0  0  0  0  0  0  0  0  0  0  0  0
    3.8393    0.6619    0.0000 H   0  0  0  0  0  0  0  0  0  0  0  0
    2.8623    0.2645    0.0000 H   0  0  0  0  0  0  0  0  0  0  0  0
    2.0803    0.6612    0.0000 H   0  0  0  0  0  0  0  0  0  0  0  0
    1.6836   -0.1207    0.0000 H   0  0  0  0  0  0  0  0  0  0  0  0
    6.0984    4.8034    0.0000 H   0  0  0  0  0  0  0  0  0  0  0  0
    6.9696    4.1755    0.0000 H   0  0  0  0  0  0  0  0  0  0  0  0
    6.7052   -0.9927    0.0000 H   0  0  0  0  0  0  0  0  0  0  0  0
    5.2619   -4.8034    0.0000 H   0  0  0  0  0  0  0  0  0  0  0  0
  1 16  1  0  0  0  0
  1 17  1  0  0  0  0
  2 20  1  0  0  0  0
  3 24  2  0  0  0  0
  4 25  1  0  0  0  0
  4 43  1  0  0  0  0
  5 25  2  0  0  0  0
  6 10  1  0  0  0  0
  6 12  1  0  0  0  0
  6 14  1  0  0  0  0
  7 13  1  0  0  0  0
  7 15  1  0  0  0  0
  7 16  1  0  0  0  0
  8  9  1  0  0  0  0
  8 40  1  0  0  0  0
  8 41  1  0  0  0  0
  9 10  1  0  0  0  0
  9 11  1  0  0  0  0
  9 26  1  0  0  0  0
 10 27  1  0  0  0  0
 10 28  1  0  0  0  0
 11 12  1  0  0  0  0
 11 29  1  0  0  0  0
 11 30  1  0  0  0  0
 12 31  1  0  0  0  0
 12 32  1  0  0  0  0
 13 17  1  0  0  0  0
 13 22  1  0  0  0  0
 13 33  1  0  0  0  0
 14 18  1  0  0  0  0
 14 20  2  0  0  0  0
 15 18  2  0  0  0  0
 15 19  1  0  0  0  0
 16 21  2  0  0  0  0
 17 34  1  0  0  0  0
 17 35  1  0  0  0  0
 18 36  1  0  0  0  0
 19 23  2  0  0  0  0
 19 24  1  0  0  0  0
 20 23  1  0  0  0  0
 21 24  1  0  0  0  0
 21 25  1  0  0  0  0
 22 37  1  0  0  0  0
 22 38  1  0  0  0  0
 22 39  1  0  0  0  0
 23 42  1  0  0  0  0
M  END
> <PUBCHEM_COMPOUND_CID>
20261448

> <PUBCHEM_COMPOUND_CANONICALIZED>
1

> <PUBCHEM_CACTVS_COMPLEXITY>
643

> <PUBCHEM_CACTVS_HBOND_ACCEPTOR>
8

> <PUBCHEM_CACTVS_HBOND_DONOR>
2

> <PUBCHEM_CACTVS_ROTATABLE_BOND>
2

> <PUBCHEM_CACTVS_SUBSKEYS>
AAADceB7MQBAAAAAAAAAAAAAAAAAAWLAAAAwQAAAAAAAAECBAAAAHwQQCAAADCzF2AyyyINAAgiIAqTSSACCAABlAhAAiIEIZMgIZD7o1NGUYYhksADI2ceY2aOeCAAAAAQCAAAQAAAACAQAAAAAAAAAAA==

> <PUBCHEM_IUPAC_OPENEYE_NAME>
8-(3-aminopyrrolidin-1-yl)-7-fluoro-1-methyl-5-oxo-1,2-dihydrothiazolo[3,2-a]quinoline-4-carboxylic acid

> <PUBCHEM_IUPAC_CAS_NAME>
8-(3-amino-1-pyrrolidinyl)-7-fluoro-1-methyl-5-oxo-1,2-dihydrothiazolo[3,2-a]quinoline-4-carboxylic acid

> <PUBCHEM_IUPAC_NAME_MARKUP>
8-(3-aminopyrrolidin-1-yl)-7-fluoro-1-methyl-5-oxo-1,2-dihydro-[1,3]thiazolo[3,2-a]quinoline-4-carboxylic acid

> <PUBCHEM_IUPAC_NAME>
8-(3-aminopyrrolidin-1-yl)-7-fluoro-1-methyl-5-oxo-1,2-dihydro-[1,3]thiazolo[3,2-a]quinoline-4-carboxylic acid

> <PUBCHEM_IUPAC_SYSTEMATIC_NAME>
8-(3-azanylpyrrolidin-1-yl)-7-fluoranyl-1-methyl-5-oxidanylidene-1,2-dihydro-[1,3]thiazolo[3,2-a]quinoline-4-carboxylic acid

> <PUBCHEM_IUPAC_TRADITIONAL_NAME>
8-(3-aminopyrrolidino)-7-fluoro-5-keto-1-methyl-1,2-dihydrothiazolo[3,2-a]quinoline-4-carboxylic acid

> <PUBCHEM_IUPAC_INCHI>
InChI=1S/C17H18FN3O3S/c1-8-7-25-16-14(17(23)24)15(22)10-4-11(18)13(5-12(10)21(8)16)20-3-2-9(19)6-20/h4-5,8-9H,2-3,6-7,19H2,1H3,(H,23,24)

> <PUBCHEM_IUPAC_INCHIKEY>
SHNZBTHVGXHLLD-UHFFFAOYSA-N

> <PUBCHEM_XLOGP3_AA>
0.1

> <PUBCHEM_EXACT_MASS>
363.10529078

> <PUBCHEM_MOLECULAR_FORMULA>
C17H18FN3O3S

> <PUBCHEM_MOLECULAR_WEIGHT>
363.4

> <PUBCHEM_SMILES>
CC1CSC2=C(C(=O)C3=CC(=C(C=C3N12)N4CCC(C4)N)F)C(=O)O

> <PUBCHEM_OPENEYE_CAN_SMILES>
CC1CSC2=C(C(=O)C3=CC(=C(C=C3N12)N4CCC(C4)N)F)C(=O)O

> <PUBCHEM_OPENEYE_ISO_SMILES>
CC1CSC2=C(C(=O)C3=CC(=C(C=C3N12)N4CCC(C4)N)F)C(=O)O

> <PUBCHEM_CACTVS_TPSA>
112

> <PUBCHEM_MONOISOTOPIC_WEIGHT>
363.10529078

> <PUBCHEM_TOTAL_CHARGE>
0

> <PUBCHEM_HEAVY_ATOM_COUNT>
25

> <PUBCHEM_ATOM_DEF_STEREO_COUNT>
0

> <PUBCHEM_ATOM_UDEF_STEREO_COUNT>
2

> <PUBCHEM_BOND_DEF_STEREO_COUNT>
0

> <PUBCHEM_BOND_UDEF_STEREO_COUNT>
0

> <PUBCHEM_ISOTOPIC_ATOM_COUNT>
0

> <PUBCHEM_COMPONENT_COUNT>
1

> <PUBCHEM_CACTVS_TAUTO_COUNT>
-1

> <PUBCHEM_COORDINATE_TYPE>
1
5
255

> <PUBCHEM_BONDANNOTATIONS>
13  22  3
14  18  8
14  20  8
15  18  8
15  19  8
16  21  8
19  23  8
19  24  8
20  23  8
21  24  8
7  15  8
7  16  8
9  8  3

$$$$
