45273796
  -OEChem-03202506582D

 36 39  0     0  0  0  0  0  0999 V2000
    5.2927    2.2877    0.0000 O   0  0  0  0  0  0  0  0  0  0  0  0
    4.3958   -3.5429    0.0000 O   0  0  0  0  0  0  0  0  0  0  0  0
    7.0517    2.0022    0.0000 N   0  0  0  0  0  0  0  0  0  0  0  0
    3.5298   -1.0429    0.0000 N   0  0  0  0  0  0  0  0  0  0  0  0
    5.2619   -2.0429    0.0000 N   0  0  0  0  0  0  0  0  0  0  0  0
    7.8630    2.5868    0.0000 C   0  0  0  0  0  0  0  0  0  0  0  0
    7.5576    3.5391    0.0000 C   0  0  0  0  0  0  0  0  0  0  0  0
    6.5576    3.5429    0.0000 C   0  0  0  0  0  0  0  0  0  0  0  0
    7.0479    1.0022    0.0000 C   0  0  0  0  0  0  0  0  0  0  0  0
    6.2450    2.5931    0.0000 C   0  0  0  0  0  0  0  0  0  0  0  0
    6.1799    0.5055    0.0000 C   0  0  0  0  0  0  0  0  0  0  0  0
    4.3958   -0.5429    0.0000 C   0  0  0  0  0  0  0  0  0  0  0  0
    5.2619   -1.0429    0.0000 C   0  0  0  0  0  0  0  0  0  0  0  0
    6.1719   -0.5361    0.0000 C   0  0  0  0  0  0  0  0  0  0  0  0
    5.2778    1.0263    0.0000 C   0  0  0  0  0  0  0  0  0  0  0  0
    4.3798    0.4986    0.0000 C   0  0  0  0  0  0  0  0  0  0  0  0
    3.5298   -2.0429    0.0000 C   0  0  0  0  0  0  0  0  0  0  0  0
    4.3958   -2.5429    0.0000 C   0  0  0  0  0  0  0  0  0  0  0  0
    2.5836   -0.7382    0.0000 C   0  0  0  0  0  0  0  0  0  0  0  0
    2.5836   -2.3477    0.0000 C   0  0  0  0  0  0  0  0  0  0  0  0
    2.0000   -1.5429    0.0000 C   0  0  0  0  0  0  0  0  0  0  0  0
    8.1709    2.0487    0.0000 H   0  0  0  0  0  0  0  0  0  0  0  0
    8.4304    2.8368    0.0000 H   0  0  0  0  0  0  0  0  0  0  0  0
    8.1646    3.6656    0.0000 H   0  0  0  0  0  0  0  0  0  0  0  0
    7.4952    4.1559    0.0000 H   0  0  0  0  0  0  0  0  0  0  0  0
    6.6248    4.1593    0.0000 H   0  0  0  0  0  0  0  0  0  0  0  0
    5.9517    3.6742    0.0000 H   0  0  0  0  0  0  0  0  0  0  0  0
    7.2577    0.4188    0.0000 H   0  0  0  0  0  0  0  0  0  0  0  0
    7.6588    1.1075    0.0000 H   0  0  0  0  0  0  0  0  0  0  0  0
    6.7052   -0.8523    0.0000 H   0  0  0  0  0  0  0  0  0  0  0  0
    5.2754    1.6463    0.0000 H   0  0  0  0  0  0  0  0  0  0  0  0
    3.8393    0.8024    0.0000 H   0  0  0  0  0  0  0  0  0  0  0  0
    5.7988   -2.3529    0.0000 H   0  0  0  0  0  0  0  0  0  0  0  0
    2.3910   -0.1489    0.0000 H   0  0  0  0  0  0  0  0  0  0  0  0
    2.3910   -2.9370    0.0000 H   0  0  0  0  0  0  0  0  0  0  0  0
    1.3800   -1.5429    0.0000 H   0  0  0  0  0  0  0  0  0  0  0  0
  1 10  2  0  0  0  0
  2 18  2  0  0  0  0
  3  6  1  0  0  0  0
  3  9  1  0  0  0  0
  3 10  1  0  0  0  0
  4 12  1  0  0  0  0
  4 17  1  0  0  0  0
  4 19  1  0  0  0  0
  5 13  1  0  0  0  0
  5 18  1  0  0  0  0
  5 33  1  0  0  0  0
  6  7  1  0  0  0  0
  6 22  1  0  0  0  0
  6 23  1  0  0  0  0
  7  8  1  0  0  0  0
  7 24  1  0  0  0  0
  7 25  1  0  0  0  0
  8 10  1  0  0  0  0
  8 26  1  0  0  0  0
  8 27  1  0  0  0  0
  9 11  1  0  0  0  0
  9 28  1  0  0  0  0
  9 29  1  0  0  0  0
 11 14  2  0  0  0  0
 11 15  1  0  0  0  0
 12 13  2  0  0  0  0
 12 16  1  0  0  0  0
 13 14  1  0  0  0  0
 14 30  1  0  0  0  0
 15 16  2  0  0  0  0
 15 31  1  0  0  0  0
 16 32  1  0  0  0  0
 17 18  1  0  0  0  0
 17 20  2  0  0  0  0
 19 21  2  0  0  0  0
 19 34  1  0  0  0  0
 20 21  1  0  0  0  0
 20 35  1  0  0  0  0
 21 36  1  0  0  0  0
M  END
> <PUBCHEM_COMPOUND_CID>
45273796

> <PUBCHEM_COMPOUND_CANONICALIZED>
1

> <PUBCHEM_CACTVS_COMPLEXITY>
453

> <PUBCHEM_CACTVS_HBOND_ACCEPTOR>
2

> <PUBCHEM_CACTVS_HBOND_DONOR>
1

> <PUBCHEM_CACTVS_ROTATABLE_BOND>
2

> <PUBCHEM_CACTVS_SUBSKEYS>
AAADccB7MAAAAAAAAAAAAAAAAAAAAWLAAAA8QAAAAAAAAFixwAAAHgAQAAAADAjBngQ8wJPMEACoAzV3VACCgCA3AiAI2CG4dNgIYPLAlbGUIQhglgDIyYccgQAOCAAAQAAAACAQAACAAAAAQAAAAAAAAA==

> <PUBCHEM_IUPAC_OPENEYE_NAME>
7-[(2-oxopyrrolidin-1-yl)methyl]-5H-pyrrolo[1,2-a]quinoxalin-4-one

> <PUBCHEM_IUPAC_CAS_NAME>
7-[(2-oxo-1-pyrrolidinyl)methyl]-5H-pyrrolo[1,2-a]quinoxalin-4-one

> <PUBCHEM_IUPAC_NAME_MARKUP>
7-[(2-oxopyrrolidin-1-yl)methyl]-5<I>H</I>-pyrrolo[1,2-a]quinoxalin-4-one

> <PUBCHEM_IUPAC_NAME>
7-[(2-oxopyrrolidin-1-yl)methyl]-5H-pyrrolo[1,2-a]quinoxalin-4-one

> <PUBCHEM_IUPAC_SYSTEMATIC_NAME>
7-[(2-oxidanylidenepyrrolidin-1-yl)methyl]-5H-pyrrolo[1,2-a]quinoxalin-4-one

> <PUBCHEM_IUPAC_TRADITIONAL_NAME>
7-[(2-ketopyrrolidino)methyl]-5H-pyrrolo[1,2-a]quinoxalin-4-one

> <PUBCHEM_IUPAC_INCHI>
InChI=1S/C16H15N3O2/c20-15-4-2-7-18(15)10-11-5-6-13-12(9-11)17-16(21)14-3-1-8-19(13)14/h1,3,5-6,8-9H,2,4,7,10H2,(H,17,21)

> <PUBCHEM_IUPAC_INCHIKEY>
JCFJQIHDZHHMQT-UHFFFAOYSA-N

> <PUBCHEM_XLOGP3_AA>
0.9

> <PUBCHEM_EXACT_MASS>
281.116426730

> <PUBCHEM_MOLECULAR_FORMULA>
C16H15N3O2

> <PUBCHEM_MOLECULAR_WEIGHT>
281.31

> <PUBCHEM_SMILES>
C1CC(=O)N(C1)CC2=CC3=C(C=C2)N4C=CC=C4C(=O)N3

> <PUBCHEM_OPENEYE_CAN_SMILES>
C1CC(=O)N(C1)CC2=CC3=C(C=C2)N4C=CC=C4C(=O)N3

> <PUBCHEM_OPENEYE_ISO_SMILES>
C1CC(=O)N(C1)CC2=CC3=C(C=C2)N4C=CC=C4C(=O)N3

> <PUBCHEM_CACTVS_TPSA>
54.3

> <PUBCHEM_MONOISOTOPIC_WEIGHT>
281.116426730

> <PUBCHEM_TOTAL_CHARGE>
0

> <PUBCHEM_HEAVY_ATOM_COUNT>
21

> <PUBCHEM_ATOM_DEF_STEREO_COUNT>
0

> <PUBCHEM_ATOM_UDEF_STEREO_COUNT>
0

> <PUBCHEM_BOND_DEF_STEREO_COUNT>
0

> <PUBCHEM_BOND_UDEF_STEREO_COUNT>
0

> <PUBCHEM_ISOTOPIC_ATOM_COUNT>
0

> <PUBCHEM_COMPONENT_COUNT>
1

> <PUBCHEM_CACTVS_TAUTO_COUNT>
-1

> <PUBCHEM_COORDINATE_TYPE>
1
5
255

> <PUBCHEM_BONDANNOTATIONS>
11  14  8
11  15  8
12  13  8
12  16  8
13  14  8
15  16  8
17  18  8
17  20  8
19  21  8
20  21  8
4  12  8
4  17  8
4  19  8
5  13  8
5  18  8

$$$$
