44355300
  -OEChem-03202500162D

 72 78  0     1  0  0  0  0  0999 V2000
    5.0582   -0.0480    0.0000 O   0  0  0  0  0  0  0  0  0  0  0  0
    4.8308   -2.6256    0.0000 O   0  0  0  0  0  0  0  0  0  0  0  0
    2.9448   -1.5411    0.0000 O   0  0  0  0  0  0  0  0  0  0  0  0
    2.4157    0.3781    0.0000 O   0  0  0  0  0  0  0  0  0  0  0  0
    3.0304    2.2813    0.0000 O   0  0  0  0  0  0  0  0  0  0  0  0
   10.1710   -1.7552    0.0000 O   0  0  0  0  0  0  0  0  0  0  0  0
   10.1710    1.7552    0.0000 O   0  0  0  0  0  0  0  0  0  0  0  0
    6.6040   -4.7683    0.0000 O   0  0  0  0  0  0  0  0  0  0  0  0
    6.6040    4.7683    0.0000 O   0  0  0  0  0  0  0  0  0  0  0  0
   13.4439    1.7320    0.0000 O   0  0  0  0  0  0  0  0  0  0  0  0
   11.9439    2.5981    0.0000 O   0  0  0  0  0  0  0  0  0  0  0  0
    6.4450   -1.1671    0.0000 N   0  0  0  0  0  0  0  0  0  0  0  0
    6.4450    1.1671    0.0000 N   0  0  0  0  0  0  0  0  0  0  0  0
   10.4439    0.0000    0.0000 N   0  0  0  0  0  0  0  0  0  0  0  0
   11.4439    0.0000    0.0000 N   0  0  0  0  0  0  0  0  0  0  0  0
    5.4665   -0.9609    0.0000 C   0  0  1  0  0  0  0  0  0  0  0  0
    4.7245   -1.6313    0.0000 C   0  0  1  0  0  0  0  0  0  0  0  0
    3.8576   -1.1328    0.0000 C   0  0  1  0  0  0  0  0  0  0  0  0
    4.0639   -0.1543    0.0000 C   0  0  2  0  0  0  0  0  0  0  0  0
    7.1820   -0.5000    0.0000 C   0  0  0  0  0  0  0  0  0  0  0  0
    8.0481   -1.0000    0.0000 C   0  0  0  0  0  0  0  0  0  0  0  0
    6.8501   -2.0749    0.0000 C   0  0  0  0  0  0  0  0  0  0  0  0
    7.1820    0.5000    0.0000 C   0  0  0  0  0  0  0  0  0  0  0  0
    7.8389   -1.9718    0.0000 C   0  0  0  0  0  0  0  0  0  0  0  0
    3.3934    0.5877    0.0000 C   0  0  3  0  0  0  0  0  0  0  0  0
    8.9141   -0.5000    0.0000 C   0  0  0  0  0  0  0  0  0  0  0  0
    8.0481    1.0000    0.0000 C   0  0  0  0  0  0  0  0  0  0  0  0
    8.9141    0.5000    0.0000 C   0  0  0  0  0  0  0  0  0  0  0  0
    7.8389    1.9718    0.0000 C   0  0  0  0  0  0  0  0  0  0  0  0
    6.4136   -3.0138    0.0000 C   0  0  0  0  0  0  0  0  0  0  0  0
    6.8501    2.0749    0.0000 C   0  0  0  0  0  0  0  0  0  0  0  0
    9.8603   -0.8047    0.0000 C   0  0  0  0  0  0  0  0  0  0  0  0
    3.7008    1.5393    0.0000 C   0  0  0  0  0  0  0  0  0  0  0  0
    8.4596   -2.8006    0.0000 C   0  0  0  0  0  0  0  0  0  0  0  0
    9.8603    0.8047    0.0000 C   0  0  0  0  0  0  0  0  0  0  0  0
    7.0150   -3.8567    0.0000 C   0  0  0  0  0  0  0  0  0  0  0  0
    8.0449   -3.7494    0.0000 C   0  0  0  0  0  0  0  0  0  0  0  0
    8.4596    2.8006    0.0000 C   0  0  0  0  0  0  0  0  0  0  0  0
    6.4136    3.0138    0.0000 C   0  0  0  0  0  0  0  0  0  0  0  0
   11.9439    0.8660    0.0000 C   0  0  0  0  0  0  0  0  0  0  0  0
    8.0449    3.7494    0.0000 C   0  0  0  0  0  0  0  0  0  0  0  0
    7.0150    3.8567    0.0000 C   0  0  0  0  0  0  0  0  0  0  0  0
   12.9439    0.8660    0.0000 C   0  0  0  0  0  0  0  0  0  0  0  0
   11.4439    1.7320    0.0000 C   0  0  0  0  0  0  0  0  0  0  0  0
    5.8559   -0.4784    0.0000 H   0  0  0  0  0  0  0  0  0  0  0  0
    4.2051   -1.9699    0.0000 H   0  0  0  0  0  0  0  0  0  0  0  0
    3.8263   -1.7520    0.0000 H   0  0  0  0  0  0  0  0  0  0  0  0
    4.2850    0.4249    0.0000 H   0  0  0  0  0  0  0  0  0  0  0  0
    2.9778    1.0477    0.0000 H   0  0  0  0  0  0  0  0  0  0  0  0
    5.8384    1.0392    0.0000 H   0  0  0  0  0  0  0  0  0  0  0  0
    5.7963   -3.0710    0.0000 H   0  0  0  0  0  0  0  0  0  0  0  0
    4.3298   -2.9909    0.0000 H   0  0  0  0  0  0  0  0  0  0  0  0
    2.4426   -1.1775    0.0000 H   0  0  0  0  0  0  0  0  0  0  0  0
    4.2487    1.2492    0.0000 H   0  0  0  0  0  0  0  0  0  0  0  0
    4.0817    2.0285    0.0000 H   0  0  0  0  0  0  0  0  0  0  0  0
    9.0755   -2.7292    0.0000 H   0  0  0  0  0  0  0  0  0  0  0  0
    8.4109   -4.2499    0.0000 H   0  0  0  0  0  0  0  0  0  0  0  0
    2.0000    0.8381    0.0000 H   0  0  0  0  0  0  0  0  0  0  0  0
    9.0755    2.7292    0.0000 H   0  0  0  0  0  0  0  0  0  0  0  0
    5.7963    3.0710    0.0000 H   0  0  0  0  0  0  0  0  0  0  0  0
   11.7539   -0.5369    0.0000 H   0  0  0  0  0  0  0  0  0  0  0  0
   12.2539    0.3291    0.0000 H   0  0  0  0  0  0  0  0  0  0  0  0
    8.4109    4.2499    0.0000 H   0  0  0  0  0  0  0  0  0  0  0  0
    3.2210    2.8713    0.0000 H   0  0  0  0  0  0  0  0  0  0  0  0
    6.9661   -5.2716    0.0000 H   0  0  0  0  0  0  0  0  0  0  0  0
   12.8363    0.2554    0.0000 H   0  0  0  0  0  0  0  0  0  0  0  0
   13.5265    0.6540    0.0000 H   0  0  0  0  0  0  0  0  0  0  0  0
   10.9690    2.1306    0.0000 H   0  0  0  0  0  0  0  0  0  0  0  0
   10.9690    1.3335    0.0000 H   0  0  0  0  0  0  0  0  0  0  0  0
    6.9661    5.2716    0.0000 H   0  0  0  0  0  0  0  0  0  0  0  0
   14.0639    1.7320    0.0000 H   0  0  0  0  0  0  0  0  0  0  0  0
   11.6339    3.1350    0.0000 H   0  0  0  0  0  0  0  0  0  0  0  0
  1 16  1  0  0  0  0
  1 19  1  0  0  0  0
 17  2  1  6  0  0  0
  2 52  1  0  0  0  0
 18  3  1  6  0  0  0
  3 53  1  0  0  0  0
  4 25  1  0  0  0  0
  4 58  1  0  0  0  0
  5 33  1  0  0  0  0
  5 64  1  0  0  0  0
  6 32  2  0  0  0  0
  7 35  2  0  0  0  0
  8 36  1  0  0  0  0
  8 65  1  0  0  0  0
  9 42  1  0  0  0  0
  9 70  1  0  0  0  0
 10 43  1  0  0  0  0
 10 71  1  0  0  0  0
 11 44  1  0  0  0  0
 11 72  1  0  0  0  0
 16 12  1  1  0  0  0
 12 20  1  0  0  0  0
 12 22  1  0  0  0  0
 13 23  1  0  0  0  0
 13 31  1  0  0  0  0
 13 50  1  0  0  0  0
 14 15  1  0  0  0  0
 14 32  1  0  0  0  0
 14 35  1  0  0  0  0
 15 40  1  0  0  0  0
 15 61  1  0  0  0  0
 16 17  1  0  0  0  0
 16 45  1  0  0  0  0
 17 18  1  0  0  0  0
 17 46  1  0  0  0  0
 18 19  1  0  0  0  0
 18 47  1  0  0  0  0
 19 25  1  6  0  0  0
 19 48  1  0  0  0  0
 20 21  1  0  0  0  0
 20 23  2  0  0  0  0
 21 24  1  0  0  0  0
 21 26  2  0  0  0  0
 22 24  2  0  0  0  0
 22 30  1  0  0  0  0
 23 27  1  0  0  0  0
 24 34  1  0  0  0  0
 25 33  1  0  0  0  0
 25 49  1  0  0  0  0
 26 28  1  0  0  0  0
 26 32  1  0  0  0  0
 27 28  2  0  0  0  0
 27 29  1  0  0  0  0
 28 35  1  0  0  0  0
 29 31  2  0  0  0  0
 29 38  1  0  0  0  0
 30 36  2  0  0  0  0
 30 51  1  0  0  0  0
 31 39  1  0  0  0  0
 33 54  1  0  0  0  0
 33 55  1  0  0  0  0
 34 37  2  0  0  0  0
 34 56  1  0  0  0  0
 36 37  1  0  0  0  0
 37 57  1  0  0  0  0
 38 41  2  0  0  0  0
 38 59  1  0  0  0  0
 39 42  2  0  0  0  0
 39 60  1  0  0  0  0
 40 43  1  0  0  0  0
 40 44  1  0  0  0  0
 40 62  1  0  0  0  0
 41 42  1  0  0  0  0
 41 63  1  0  0  0  0
 43 66  1  0  0  0  0
 43 67  1  0  0  0  0
 44 68  1  0  0  0  0
 44 69  1  0  0  0  0
M  END
> <PUBCHEM_COMPOUND_CID>
44355300

> <PUBCHEM_COMPOUND_CANONICALIZED>
1

> <PUBCHEM_CACTVS_COMPLEXITY>
1120

> <PUBCHEM_CACTVS_HBOND_ACCEPTOR>
12

> <PUBCHEM_CACTVS_HBOND_DONOR>
10

> <PUBCHEM_CACTVS_ROTATABLE_BOND>
7

> <PUBCHEM_CACTVS_SUBSKEYS>
AAADceB7vAAAAAAAAAAAAAAAAAAAAWLFiQAwYMAAAAAAAFgB/gAAHgAYCAAADDzhngYwxvPvlgCoAyVyVACCgCQlMiAa+aE+fNgLdvLClZOecQhn1Dnb2Qf9+fee6AACQgASACDQAASEACQAQAAAAAAAAA==

> <PUBCHEM_IUPAC_OPENEYE_NAME>
3-[(2R,3R,4S,5S)-5-(1,2-dihydroxyethyl)-3,4-dihydroxy-tetrahydrofuran-2-yl]-6,20-dihydroxy-13-[[2-hydroxy-1-(hydroxymethyl)ethyl]amino]-3,13,23-triazahexacyclo[14.7.0.02,10.04,9.011,15.017,22]tricosa-1,4(9),5,7,10,15,17(22),18,20-nonaene-12,14-dione

> <PUBCHEM_IUPAC_CAS_NAME>
3-[(2R,3R,4S,5S)-5-(1,2-dihydroxyethyl)-3,4-dihydroxy-2-oxolanyl]-13-(1,3-dihydroxypropan-2-ylamino)-6,20-dihydroxy-3,13,23-triazahexacyclo[14.7.0.02,10.04,9.011,15.017,22]tricosa-1,4(9),5,7,10,15,17(22),18,20-nonaene-12,14-dione

> <PUBCHEM_IUPAC_NAME_MARKUP>
3-[(2<I>R</I>,3<I>R</I>,4<I>S</I>,5<I>S</I>)-5-(1,2-dihydroxyethyl)-3,4-dihydroxyoxolan-2-yl]-13-(1,3-dihydroxypropan-2-ylamino)-6,20-dihydroxy-3,13,23-triazahexacyclo[14.7.0.0<SUP>2,10</SUP>.0<SUP>4,9</SUP>.0<SUP>11,15</SUP>.0<SUP>17,22</SUP>]tricosa-1,4(9),5,7,10,15,17(22),18,20-nonaene-12,14-dione

> <PUBCHEM_IUPAC_NAME>
3-[(2R,3R,4S,5S)-5-(1,2-dihydroxyethyl)-3,4-dihydroxyoxolan-2-yl]-13-(1,3-dihydroxypropan-2-ylamino)-6,20-dihydroxy-3,13,23-triazahexacyclo[14.7.0.02,10.04,9.011,15.017,22]tricosa-1,4(9),5,7,10,15,17(22),18,20-nonaene-12,14-dione

> <PUBCHEM_IUPAC_SYSTEMATIC_NAME>
3-[(2R,3R,4S,5S)-5-[1,2-bis(oxidanyl)ethyl]-3,4-bis(oxidanyl)oxolan-2-yl]-13-[1,3-bis(oxidanyl)propan-2-ylamino]-6,20-bis(oxidanyl)-3,13,23-triazahexacyclo[14.7.0.02,10.04,9.011,15.017,22]tricosa-1,4(9),5,7,10,15,17(22),18,20-nonaene-12,14-dione

> <PUBCHEM_IUPAC_TRADITIONAL_NAME>
3-[(2R,3R,4S,5S)-5-(1,2-dihydroxyethyl)-3,4-dihydroxy-tetrahydrofuran-2-yl]-6,20-dihydroxy-13-[(2-hydroxy-1-methylol-ethyl)amino]-3,13,23-triazahexacyclo[14.7.0.02,10.04,9.011,15.017,22]tricosa-1,4(9),5,7,10,15,17(22),18,20-nonaene-12,14-quinone

> <PUBCHEM_IUPAC_INCHI>
InChI=1S/C29H28N4O11/c34-7-10(8-35)31-33-27(42)20-18-13-3-1-11(37)5-15(13)30-22(18)23-19(21(20)28(33)43)14-4-2-12(38)6-16(14)32(23)29-25(41)24(40)26(44-29)17(39)9-36/h1-6,10,17,24-26,29-31,34-41H,7-9H2/t17?,24-,25+,26-,29+/m0/s1

> <PUBCHEM_IUPAC_INCHIKEY>
LRIMDSSLDRGSMF-WZEFZNGUSA-N

> <PUBCHEM_XLOGP3_AA>
-0.7

> <PUBCHEM_EXACT_MASS>
608.17545772

> <PUBCHEM_MOLECULAR_FORMULA>
C29H28N4O11

> <PUBCHEM_MOLECULAR_WEIGHT>
608.6

> <PUBCHEM_SMILES>
C1=CC2=C(C=C1O)NC3=C4C(=C5C(=C23)C(=O)N(C5=O)NC(CO)CO)C6=C(N4[C@H]7[C@@H]([C@@H]([C@@H](O7)C(CO)O)O)O)C=C(C=C6)O

> <PUBCHEM_OPENEYE_CAN_SMILES>
C1=CC2=C(C=C1O)NC3=C4C(=C5C(=C23)C(=O)N(C5=O)NC(CO)CO)C6=C(N4C7C(C(C(O7)C(CO)O)O)O)C=C(C=C6)O

> <PUBCHEM_OPENEYE_ISO_SMILES>
C1=CC2=C(C=C1O)NC3=C4C(=C5C(=C23)C(=O)N(C5=O)NC(CO)CO)C6=C(N4[C@H]7[C@@H]([C@@H]([C@@H](O7)C(CO)O)O)O)C=C(C=C6)O

> <PUBCHEM_CACTVS_TPSA>
241

> <PUBCHEM_MONOISOTOPIC_WEIGHT>
608.17545772

> <PUBCHEM_TOTAL_CHARGE>
0

> <PUBCHEM_HEAVY_ATOM_COUNT>
44

> <PUBCHEM_ATOM_DEF_STEREO_COUNT>
4

> <PUBCHEM_ATOM_UDEF_STEREO_COUNT>
1

> <PUBCHEM_BOND_DEF_STEREO_COUNT>
0

> <PUBCHEM_BOND_UDEF_STEREO_COUNT>
0

> <PUBCHEM_ISOTOPIC_ATOM_COUNT>
0

> <PUBCHEM_COMPONENT_COUNT>
1

> <PUBCHEM_CACTVS_TAUTO_COUNT>
-1

> <PUBCHEM_COORDINATE_TYPE>
1
5
255

> <PUBCHEM_BONDANNOTATIONS>
16  12  5
12  20  8
12  22  8
13  23  8
13  31  8
19  25  6
17  2  6
20  21  8
20  23  8
21  24  8
21  26  8
22  24  8
22  30  8
23  27  8
24  34  8
26  28  8
27  28  8
27  29  8
29  31  8
29  38  8
18  3  6
30  36  8
31  39  8
34  37  8
36  37  8
38  41  8
39  42  8
25  4  3
41  42  8

$$$$
