49831039
  -OEChem-03202503312D

 24 25  0     0  0  0  0  0  0999 V2000
    4.7078   -1.0418    0.0000 S   0  0  0  0  0  0  0  0  0  0  0  0
    2.6200    0.6332    0.0000 O   0  0  0  0  0  0  0  0  0  0  0  0
    6.6051   -1.0375    0.0000 N   0  0  0  0  0  0  0  0  0  0  0  0
    7.1887   -0.2328    0.0000 N   0  0  0  0  0  0  0  0  0  0  0  0
    4.3988    1.5273    0.0000 N   0  0  0  0  0  0  0  0  0  0  0  0
    2.6200   -1.0988    0.0000 N   0  0  0  0  0  0  0  0  0  0  0  0
    5.6588    0.2672    0.0000 C   0  0  0  0  0  0  0  0  0  0  0  0
    5.6588   -0.7328    0.0000 C   0  0  0  0  0  0  0  0  0  0  0  0
    6.6051    0.5719    0.0000 C   0  0  0  0  0  0  0  0  0  0  0  0
    4.7078    0.5762    0.0000 C   0  0  0  0  0  0  0  0  0  0  0  0
    4.1200   -0.2328    0.0000 C   0  0  0  0  0  0  0  0  0  0  0  0
    6.9157    1.5225    0.0000 C   0  0  0  0  0  0  0  0  0  0  0  0
    6.9157   -1.9880    0.0000 C   0  0  0  0  0  0  0  0  0  0  0  0
    3.1200   -0.2328    0.0000 C   0  0  0  0  0  0  0  0  0  0  0  0
    7.5050    1.3299    0.0000 H   0  0  0  0  0  0  0  0  0  0  0  0
    7.1083    2.1118    0.0000 H   0  0  0  0  0  0  0  0  0  0  0  0
    6.3264    1.7151    0.0000 H   0  0  0  0  0  0  0  0  0  0  0  0
    6.3264   -2.1806    0.0000 H   0  0  0  0  0  0  0  0  0  0  0  0
    7.1083   -2.5774    0.0000 H   0  0  0  0  0  0  0  0  0  0  0  0
    7.5050   -1.7954    0.0000 H   0  0  0  0  0  0  0  0  0  0  0  0
    4.8136    1.9880    0.0000 H   0  0  0  0  0  0  0  0  0  0  0  0
    3.7923    1.6562    0.0000 H   0  0  0  0  0  0  0  0  0  0  0  0
    2.0000   -1.0988    0.0000 H   0  0  0  0  0  0  0  0  0  0  0  0
    2.9300   -1.6358    0.0000 H   0  0  0  0  0  0  0  0  0  0  0  0
  1  8  1  0  0  0  0
  1 11  1  0  0  0  0
  2 14  2  0  0  0  0
  3  4  1  0  0  0  0
  3  8  1  0  0  0  0
  3 13  1  0  0  0  0
  4  9  2  0  0  0  0
  5 10  1  0  0  0  0
  5 21  1  0  0  0  0
  5 22  1  0  0  0  0
  6 14  1  0  0  0  0
  6 23  1  0  0  0  0
  6 24  1  0  0  0  0
  7  8  2  0  0  0  0
  7  9  1  0  0  0  0
  7 10  1  0  0  0  0
  9 12  1  0  0  0  0
 10 11  2  0  0  0  0
 11 14  1  0  0  0  0
 12 15  1  0  0  0  0
 12 16  1  0  0  0  0
 12 17  1  0  0  0  0
 13 18  1  0  0  0  0
 13 19  1  0  0  0  0
 13 20  1  0  0  0  0
M  END
> <PUBCHEM_COMPOUND_CID>
49831039

> <PUBCHEM_COMPOUND_CANONICALIZED>
1

> <PUBCHEM_CACTVS_COMPLEXITY>
262

> <PUBCHEM_CACTVS_HBOND_ACCEPTOR>
4

> <PUBCHEM_CACTVS_HBOND_DONOR>
2

> <PUBCHEM_CACTVS_ROTATABLE_BOND>
1

> <PUBCHEM_CACTVS_SUBSKEYS>
AAADccBzoABAAAAAAAAAAAAAAAAAAWJAAAAAAAAAAAAWAAAB+AAAHgQYAAAADAiB3gQCwdJIAAiuAwVwVACTFIBliBgQ2DU4RNgIIDrg1NGEhYxgiABoyUcYCQAeAAAAAAAAAAAAAAAAAAAAAAAAAAAAAA==

> <PUBCHEM_IUPAC_OPENEYE_NAME>
4-amino-1,3-dimethyl-thieno[2,3-c]pyrazole-5-carboxamide

> <PUBCHEM_IUPAC_CAS_NAME>
4-amino-1,3-dimethyl-5-thieno[2,3-c]pyrazolecarboxamide

> <PUBCHEM_IUPAC_NAME_MARKUP>
4-amino-1,3-dimethylthieno[2,3-c]pyrazole-5-carboxamide

> <PUBCHEM_IUPAC_NAME>
4-amino-1,3-dimethylthieno[2,3-c]pyrazole-5-carboxamide

> <PUBCHEM_IUPAC_SYSTEMATIC_NAME>
4-azanyl-1,3-dimethyl-thieno[2,3-c]pyrazole-5-carboxamide

> <PUBCHEM_IUPAC_TRADITIONAL_NAME>
4-amino-1,3-dimethyl-thieno[2,3-c]pyrazole-5-carboxamide

> <PUBCHEM_IUPAC_INCHI>
InChI=1S/C8H10N4OS/c1-3-4-5(9)6(7(10)13)14-8(4)12(2)11-3/h9H2,1-2H3,(H2,10,13)

> <PUBCHEM_IUPAC_INCHIKEY>
OULGHWYAFYSZGK-UHFFFAOYSA-N

> <PUBCHEM_XLOGP3_AA>
1.1

> <PUBCHEM_EXACT_MASS>
210.05753213

> <PUBCHEM_MOLECULAR_FORMULA>
C8H10N4OS

> <PUBCHEM_MOLECULAR_WEIGHT>
210.26

> <PUBCHEM_SMILES>
CC1=NN(C2=C1C(=C(S2)C(=O)N)N)C

> <PUBCHEM_OPENEYE_CAN_SMILES>
CC1=NN(C2=C1C(=C(S2)C(=O)N)N)C

> <PUBCHEM_OPENEYE_ISO_SMILES>
CC1=NN(C2=C1C(=C(S2)C(=O)N)N)C

> <PUBCHEM_CACTVS_TPSA>
115

> <PUBCHEM_MONOISOTOPIC_WEIGHT>
210.05753213

> <PUBCHEM_TOTAL_CHARGE>
0

> <PUBCHEM_HEAVY_ATOM_COUNT>
14

> <PUBCHEM_ATOM_DEF_STEREO_COUNT>
0

> <PUBCHEM_ATOM_UDEF_STEREO_COUNT>
0

> <PUBCHEM_BOND_DEF_STEREO_COUNT>
0

> <PUBCHEM_BOND_UDEF_STEREO_COUNT>
0

> <PUBCHEM_ISOTOPIC_ATOM_COUNT>
0

> <PUBCHEM_COMPONENT_COUNT>
1

> <PUBCHEM_CACTVS_TAUTO_COUNT>
-1

> <PUBCHEM_COORDINATE_TYPE>
1
5
255

> <PUBCHEM_BONDANNOTATIONS>
1  11  8
1  8  8
10  11  8
3  4  8
3  8  8
4  9  8
7  10  8
7  8  8
7  9  8

$$$$
