71583657
  -OEChem-03202504592D

 57 61  0     0  0  0  0  0  0999 V2000
   12.5642   -0.5985    0.0000 Cl  0  0  0  0  0  0  0  0  0  0  0  0
   14.3208    4.2268    0.0000 S   0  0  0  0  0  0  0  0  0  0  0  0
   12.5411    1.4013    0.0000 O   0  0  0  0  0  0  0  0  0  0  0  0
    6.2031   -0.0595    0.0000 O   0  0  0  0  0  0  0  0  0  0  0  0
    2.6131    0.2752    0.0000 O   0  0  0  0  0  0  0  0  0  0  0  0
    7.4361   -3.7967    0.0000 N   0  0  0  0  0  0  0  0  0  0  0  0
    9.1003   -0.6386    0.0000 N   0  0  0  0  0  0  0  0  0  0  0  0
    9.1119   -3.7078    0.0000 N   0  0  0  0  0  0  0  0  0  0  0  0
    4.8489   -1.1394    0.0000 N   0  0  0  0  0  0  0  0  0  0  0  0
   10.0180   -2.1524    0.0000 N   0  0  0  0  0  0  0  0  0  0  0  0
    6.0273   -2.6732    0.0000 C   0  0  0  0  0  0  0  0  0  0  0  0
    6.4612   -3.5742    0.0000 C   0  0  0  0  0  0  0  0  0  0  0  0
    6.4612   -1.7722    0.0000 C   0  0  0  0  0  0  0  0  0  0  0  0
    8.2180   -2.1732    0.0000 C   0  0  0  0  0  0  0  0  0  0  0  0
    8.2180   -3.1732    0.0000 C   0  0  0  0  0  0  0  0  0  0  0  0
    7.4361   -1.5497    0.0000 C   0  0  0  0  0  0  0  0  0  0  0  0
    9.1119   -1.6385    0.0000 C   0  0  0  0  0  0  0  0  0  0  0  0
    5.8377   -0.9904    0.0000 C   0  0  0  0  0  0  0  0  0  0  0  0
    9.9605   -0.1286    0.0000 C   0  0  0  0  0  0  0  0  0  0  0  0
    4.2254   -0.3576    0.0000 C   0  0  0  0  0  0  0  0  0  0  0  0
   10.0180   -3.1940    0.0000 C   0  0  0  0  0  0  0  0  0  0  0  0
   13.3897    2.9112    0.0000 C   0  0  0  0  0  0  0  0  0  0  0  0
   10.8323   -0.6186    0.0000 C   0  0  0  0  0  0  0  0  0  0  0  0
    9.9490    0.8713    0.0000 C   0  0  0  0  0  0  0  0  0  0  0  0
   11.6809    0.8914    0.0000 C   0  0  0  0  0  0  0  0  0  0  0  0
   12.5295    2.4013    0.0000 C   0  0  0  0  0  0  0  0  0  0  0  0
   13.3781    3.9112    0.0000 C   0  0  0  0  0  0  0  0  0  0  0  0
   11.6925   -0.1086    0.0000 C   0  0  0  0  0  0  0  0  0  0  0  0
   10.8092    1.3813    0.0000 C   0  0  0  0  0  0  0  0  0  0  0  0
    3.2366   -0.5066    0.0000 C   0  0  0  0  0  0  0  0  0  0  0  0
   11.6578    2.8912    0.0000 C   0  0  0  0  0  0  0  0  0  0  0  0
   14.3394    2.6175    0.0000 C   0  0  0  0  0  0  0  0  0  0  0  0
   12.5064    4.4011    0.0000 C   0  0  0  0  0  0  0  0  0  0  0  0
   11.6462    3.8912    0.0000 C   0  0  0  0  0  0  0  0  0  0  0  0
   14.9137    3.4289    0.0000 C   0  0  0  0  0  0  0  0  0  0  0  0
    5.5426   -2.2866    0.0000 H   0  0  0  0  0  0  0  0  0  0  0  0
    5.5426   -3.0598    0.0000 H   0  0  0  0  0  0  0  0  0  0  0  0
    5.8568   -3.7121    0.0000 H   0  0  0  0  0  0  0  0  0  0  0  0
    6.4612   -4.1941    0.0000 H   0  0  0  0  0  0  0  0  0  0  0  0
    7.5741   -0.9452    0.0000 H   0  0  0  0  0  0  0  0  0  0  0  0
    7.5741   -4.4011    0.0000 H   0  0  0  0  0  0  0  0  0  0  0  0
    8.5599   -0.3348    0.0000 H   0  0  0  0  0  0  0  0  0  0  0  0
    4.6224   -1.7166    0.0000 H   0  0  0  0  0  0  0  0  0  0  0  0
    4.7699   -0.0611    0.0000 H   0  0  0  0  0  0  0  0  0  0  0  0
    4.0279    0.2301    0.0000 H   0  0  0  0  0  0  0  0  0  0  0  0
   10.5537   -3.5061    0.0000 H   0  0  0  0  0  0  0  0  0  0  0  0
   10.8394   -1.2385    0.0000 H   0  0  0  0  0  0  0  0  0  0  0  0
    9.4085    1.1751    0.0000 H   0  0  0  0  0  0  0  0  0  0  0  0
   10.8020    2.0013    0.0000 H   0  0  0  0  0  0  0  0  0  0  0  0
    2.6921   -0.8032    0.0000 H   0  0  0  0  0  0  0  0  0  0  0  0
    3.4340   -1.0944    0.0000 H   0  0  0  0  0  0  0  0  0  0  0  0
   11.1245    2.5750    0.0000 H   0  0  0  0  0  0  0  0  0  0  0  0
   14.5388    2.0304    0.0000 H   0  0  0  0  0  0  0  0  0  0  0  0
   12.4992    5.0211    0.0000 H   0  0  0  0  0  0  0  0  0  0  0  0
   11.1057    4.1949    0.0000 H   0  0  0  0  0  0  0  0  0  0  0  0
   15.5336    3.4361    0.0000 H   0  0  0  0  0  0  0  0  0  0  0  0
    2.0000    0.1828    0.0000 H   0  0  0  0  0  0  0  0  0  0  0  0
  1 28  1  0  0  0  0
  2 27  1  0  0  0  0
  2 35  1  0  0  0  0
  3 25  1  0  0  0  0
  3 26  1  0  0  0  0
  4 18  2  0  0  0  0
  5 30  1  0  0  0  0
  5 57  1  0  0  0  0
  6 12  1  0  0  0  0
  6 15  1  0  0  0  0
  6 41  1  0  0  0  0
  7 17  1  0  0  0  0
  7 19  1  0  0  0  0
  7 42  1  0  0  0  0
  8 15  1  0  0  0  0
  8 21  2  0  0  0  0
  9 18  1  0  0  0  0
  9 20  1  0  0  0  0
  9 43  1  0  0  0  0
 10 17  2  0  0  0  0
 10 21  1  0  0  0  0
 11 12  1  0  0  0  0
 11 13  1  0  0  0  0
 11 36  1  0  0  0  0
 11 37  1  0  0  0  0
 12 38  1  0  0  0  0
 12 39  1  0  0  0  0
 13 16  2  0  0  0  0
 13 18  1  0  0  0  0
 14 15  2  0  0  0  0
 14 16  1  0  0  0  0
 14 17  1  0  0  0  0
 16 40  1  0  0  0  0
 19 23  2  0  0  0  0
 19 24  1  0  0  0  0
 20 30  1  0  0  0  0
 20 44  1  0  0  0  0
 20 45  1  0  0  0  0
 21 46  1  0  0  0  0
 22 26  2  0  0  0  0
 22 27  1  0  0  0  0
 22 32  1  0  0  0  0
 23 28  1  0  0  0  0
 23 47  1  0  0  0  0
 24 29  2  0  0  0  0
 24 48  1  0  0  0  0
 25 28  2  0  0  0  0
 25 29  1  0  0  0  0
 26 31  1  0  0  0  0
 27 33  2  0  0  0  0
 29 49  1  0  0  0  0
 30 50  1  0  0  0  0
 30 51  1  0  0  0  0
 31 34  2  0  0  0  0
 31 52  1  0  0  0  0
 32 35  2  0  0  0  0
 32 53  1  0  0  0  0
 33 34  1  0  0  0  0
 33 54  1  0  0  0  0
 34 55  1  0  0  0  0
 35 56  1  0  0  0  0
M  END
> <PUBCHEM_COMPOUND_CID>
71583657

> <PUBCHEM_COMPOUND_CANONICALIZED>
1

> <PUBCHEM_CACTVS_COMPLEXITY>
761

> <PUBCHEM_CACTVS_HBOND_ACCEPTOR>
8

> <PUBCHEM_CACTVS_HBOND_DONOR>
4

> <PUBCHEM_CACTVS_ROTATABLE_BOND>
7

> <PUBCHEM_CACTVS_SUBSKEYS>
AAADceB7sABEAAAAAAAAAAAAAAAAASAAAAA8YIAABAAAAEgB/AAAHgYQCAAADA7l2ia199bIFgisAidzdACDiKkxL/BJ2Lkub9iOPnPl+9uGPCjs1hP46ae0wKAOAEAABAIMCAAAgAAIBBgQAAAAAAAAAA==

> <PUBCHEM_IUPAC_OPENEYE_NAME>
4-[4-(benzothiophen-4-yloxy)-3-chloro-anilino]-N-(2-hydroxyethyl)-8,9-dihydro-7H-pyrimido[4,5-b]azepine-6-carboxamide

> <PUBCHEM_IUPAC_CAS_NAME>
4-[4-(1-benzothiophen-4-yloxy)-3-chloroanilino]-N-(2-hydroxyethyl)-8,9-dihydro-7H-pyrimido[4,5-b]azepine-6-carboxamide

> <PUBCHEM_IUPAC_NAME_MARKUP>
4-[4-(1-benzothiophen-4-yloxy)-3-chloroanilino]-<I>N</I>-(2-hydroxyethyl)-8,9-dihydro-7<I>H</I>-pyrimido[4,5-b]azepine-6-carboxamide

> <PUBCHEM_IUPAC_NAME>
4-[4-(1-benzothiophen-4-yloxy)-3-chloroanilino]-N-(2-hydroxyethyl)-8,9-dihydro-7H-pyrimido[4,5-b]azepine-6-carboxamide

> <PUBCHEM_IUPAC_SYSTEMATIC_NAME>
4-[[4-(1-benzothiophen-4-yloxy)-3-chloranyl-phenyl]amino]-N-(2-hydroxyethyl)-8,9-dihydro-7H-pyrimido[4,5-b]azepine-6-carboxamide

> <PUBCHEM_IUPAC_TRADITIONAL_NAME>
4-[4-(benzothiophen-4-yloxy)-3-chloro-anilino]-N-(2-hydroxyethyl)-8,9-dihydro-7H-pyrimid[4,5-b]azepine-6-carboxamide

> <PUBCHEM_IUPAC_INCHI>
InChI=1S/C25H22ClN5O3S/c26-19-13-16(4-5-21(19)34-20-2-1-3-22-17(20)7-11-35-22)31-24-18-12-15(25(33)28-9-10-32)6-8-27-23(18)29-14-30-24/h1-5,7,11-14,32H,6,8-10H2,(H,28,33)(H2,27,29,30,31)

> <PUBCHEM_IUPAC_INCHIKEY>
QHUDPFOODLMGQO-UHFFFAOYSA-N

> <PUBCHEM_XLOGP3_AA>
4.7

> <PUBCHEM_EXACT_MASS>
507.1131884

> <PUBCHEM_MOLECULAR_FORMULA>
C25H22ClN5O3S

> <PUBCHEM_MOLECULAR_WEIGHT>
508.0

> <PUBCHEM_SMILES>
C1CNC2=C(C=C1C(=O)NCCO)C(=NC=N2)NC3=CC(=C(C=C3)OC4=C5C=CSC5=CC=C4)Cl

> <PUBCHEM_OPENEYE_CAN_SMILES>
C1CNC2=C(C=C1C(=O)NCCO)C(=NC=N2)NC3=CC(=C(C=C3)OC4=C5C=CSC5=CC=C4)Cl

> <PUBCHEM_OPENEYE_ISO_SMILES>
C1CNC2=C(C=C1C(=O)NCCO)C(=NC=N2)NC3=CC(=C(C=C3)OC4=C5C=CSC5=CC=C4)Cl

> <PUBCHEM_CACTVS_TPSA>
137

> <PUBCHEM_MONOISOTOPIC_WEIGHT>
507.1131884

> <PUBCHEM_TOTAL_CHARGE>
0

> <PUBCHEM_HEAVY_ATOM_COUNT>
35

> <PUBCHEM_ATOM_DEF_STEREO_COUNT>
0

> <PUBCHEM_ATOM_UDEF_STEREO_COUNT>
0

> <PUBCHEM_BOND_DEF_STEREO_COUNT>
0

> <PUBCHEM_BOND_UDEF_STEREO_COUNT>
0

> <PUBCHEM_ISOTOPIC_ATOM_COUNT>
0

> <PUBCHEM_COMPONENT_COUNT>
1

> <PUBCHEM_CACTVS_TAUTO_COUNT>
-1

> <PUBCHEM_COORDINATE_TYPE>
1
5
255

> <PUBCHEM_BONDANNOTATIONS>
10  17  8
10  21  8
14  15  8
14  17  8
19  23  8
19  24  8
2  27  8
2  35  8
22  26  8
22  27  8
22  32  8
23  28  8
24  29  8
25  28  8
25  29  8
26  31  8
27  33  8
31  34  8
32  35  8
33  34  8
8  15  8
8  21  8

$$$$
