49830409
  -OEChem-03202504182D

 72 78  0     0  0  0  0  0  0999 V2000
    2.0000   -1.0737    0.0000 Cl  0  0  0  0  0  0  0  0  0  0  0  0
    8.4851   -1.8784    0.0000 S   0  0  0  0  0  0  0  0  0  0  0  0
    6.0719    6.9280    0.0000 O   0  0  0  0  0  0  0  0  0  0  0  0
    4.5000   -3.6718    0.0000 O   0  0  0  0  0  0  0  0  0  0  0  0
    4.7337    5.4417    0.0000 N   0  0  0  0  0  0  0  0  0  0  0  0
    7.5388   -0.5737    0.0000 N   0  0  0  0  0  0  0  0  0  0  0  0
    4.0135    2.0533    0.0000 N   0  0  0  0  0  0  0  0  0  0  0  0
    6.5878   -1.8827    0.0000 N   0  0  0  0  0  0  0  0  0  0  0  0
    5.3006    0.8943    0.0000 N   0  0  0  0  0  0  0  0  0  0  0  0
    3.0000   -2.8057    0.0000 N   0  0  0  0  0  0  0  0  0  0  0  0
    5.6607    2.5885    0.0000 N   0  0  0  0  0  0  0  0  0  0  0  0
    4.4247    6.3927    0.0000 C   0  0  0  0  0  0  0  0  0  0  0  0
    5.7118    5.2338    0.0000 C   0  0  0  0  0  0  0  0  0  0  0  0
    5.0938    7.1359    0.0000 C   0  0  0  0  0  0  0  0  0  0  0  0
    6.3810    5.9769    0.0000 C   0  0  0  0  0  0  0  0  0  0  0  0
    4.0646    4.6985    0.0000 C   0  0  0  0  0  0  0  0  0  0  0  0
    4.3736    3.7475    0.0000 C   0  0  0  0  0  0  0  0  0  0  0  0
    3.0864    4.9064    0.0000 C   0  0  0  0  0  0  0  0  0  0  0  0
    6.5878   -0.2647    0.0000 C   0  0  0  0  0  0  0  0  0  0  0  0
    3.7044    3.0043    0.0000 C   0  0  0  0  0  0  0  0  0  0  0  0
    6.0000   -1.0737    0.0000 C   0  0  0  0  0  0  0  0  0  0  0  0
    2.4173    4.1633    0.0000 C   0  0  0  0  0  0  0  0  0  0  0  0
    5.0000   -1.0737    0.0000 C   0  0  0  0  0  0  0  0  0  0  0  0
    7.5388   -1.5737    0.0000 C   0  0  0  0  0  0  0  0  0  0  0  0
    2.7263    3.2122    0.0000 C   0  0  0  0  0  0  0  0  0  0  0  0
    6.2788    0.6864    0.0000 C   0  0  0  0  0  0  0  0  0  0  0  0
    8.4851   -0.2690    0.0000 C   0  0  0  0  0  0  0  0  0  0  0  0
    4.9916    1.8454    0.0000 C   0  0  0  0  0  0  0  0  0  0  0  0
    4.5000   -1.9397    0.0000 C   0  0  0  0  0  0  0  0  0  0  0  0
    4.5000   -0.2077    0.0000 C   0  0  0  0  0  0  0  0  0  0  0  0
    3.5000   -1.9397    0.0000 C   0  0  0  0  0  0  0  0  0  0  0  0
    6.9479    1.4295    0.0000 C   0  0  0  0  0  0  0  0  0  0  0  0
    9.0687   -1.0737    0.0000 C   0  0  0  0  0  0  0  0  0  0  0  0
    3.5000   -0.2077    0.0000 C   0  0  0  0  0  0  0  0  0  0  0  0
    3.0000   -1.0737    0.0000 C   0  0  0  0  0  0  0  0  0  0  0  0
    6.6389    2.3806    0.0000 C   0  0  0  0  0  0  0  0  0  0  0  0
    3.0000   -4.5378    0.0000 C   0  0  0  0  0  0  0  0  0  0  0  0
    3.5000   -3.6718    0.0000 C   0  0  0  0  0  0  0  0  0  0  0  0
    3.5000   -5.4038    0.0000 C   0  0  0  0  0  0  0  0  0  0  0  0
    3.0000   -6.2698    0.0000 C   0  0  0  0  0  0  0  0  0  0  0  0
    4.5000   -5.4038    0.0000 C   0  0  0  0  0  0  0  0  0  0  0  0
    3.5000   -7.1359    0.0000 C   0  0  0  0  0  0  0  0  0  0  0  0
    5.0000   -6.2698    0.0000 C   0  0  0  0  0  0  0  0  0  0  0  0
    4.5000   -7.1359    0.0000 C   0  0  0  0  0  0  0  0  0  0  0  0
    4.0430    6.8813    0.0000 H   0  0  0  0  0  0  0  0  0  0  0  0
    3.8772    6.1016    0.0000 H   0  0  0  0  0  0  0  0  0  0  0  0
    5.4796    4.6589    0.0000 H   0  0  0  0  0  0  0  0  0  0  0  0
    6.2376    4.9052    0.0000 H   0  0  0  0  0  0  0  0  0  0  0  0
    5.3261    7.7107    0.0000 H   0  0  0  0  0  0  0  0  0  0  0  0
    4.5680    7.4644    0.0000 H   0  0  0  0  0  0  0  0  0  0  0  0
    6.7627    5.4883    0.0000 H   0  0  0  0  0  0  0  0  0  0  0  0
    6.9284    6.2680    0.0000 H   0  0  0  0  0  0  0  0  0  0  0  0
    4.9800    3.6186    0.0000 H   0  0  0  0  0  0  0  0  0  0  0  0
    2.8948    5.4961    0.0000 H   0  0  0  0  0  0  0  0  0  0  0  0
    1.8108    4.2922    0.0000 H   0  0  0  0  0  0  0  0  0  0  0  0
    2.3114    2.7515    0.0000 H   0  0  0  0  0  0  0  0  0  0  0  0
    3.5986    1.5925    0.0000 H   0  0  0  0  0  0  0  0  0  0  0  0
    8.6777    0.3204    0.0000 H   0  0  0  0  0  0  0  0  0  0  0  0
    4.8100   -2.4766    0.0000 H   0  0  0  0  0  0  0  0  0  0  0  0
    4.8100    0.3293    0.0000 H   0  0  0  0  0  0  0  0  0  0  0  0
    7.5544    1.3006    0.0000 H   0  0  0  0  0  0  0  0  0  0  0  0
    9.6887   -1.0737    0.0000 H   0  0  0  0  0  0  0  0  0  0  0  0
    3.1900    0.3293    0.0000 H   0  0  0  0  0  0  0  0  0  0  0  0
    7.0537    2.8413    0.0000 H   0  0  0  0  0  0  0  0  0  0  0  0
    2.3800   -2.8057    0.0000 H   0  0  0  0  0  0  0  0  0  0  0  0
    2.5250   -4.1393    0.0000 H   0  0  0  0  0  0  0  0  0  0  0  0
    2.5250   -4.9363    0.0000 H   0  0  0  0  0  0  0  0  0  0  0  0
    2.3800   -6.2698    0.0000 H   0  0  0  0  0  0  0  0  0  0  0  0
    4.8100   -4.8669    0.0000 H   0  0  0  0  0  0  0  0  0  0  0  0
    3.1900   -7.6728    0.0000 H   0  0  0  0  0  0  0  0  0  0  0  0
    5.6200   -6.2698    0.0000 H   0  0  0  0  0  0  0  0  0  0  0  0
    4.8100   -7.6728    0.0000 H   0  0  0  0  0  0  0  0  0  0  0  0
  1 35  1  0  0  0  0
  2 24  1  0  0  0  0
  2 33  1  0  0  0  0
  3 14  1  0  0  0  0
  3 15  1  0  0  0  0
  4 38  2  0  0  0  0
  5 12  1  0  0  0  0
  5 13  1  0  0  0  0
  5 16  1  0  0  0  0
  6 19  1  0  0  0  0
  6 24  1  0  0  0  0
  6 27  1  0  0  0  0
  7 20  1  0  0  0  0
  7 28  1  0  0  0  0
  7 57  1  0  0  0  0
  8 21  1  0  0  0  0
  8 24  2  0  0  0  0
  9 26  2  0  0  0  0
  9 28  1  0  0  0  0
 10 31  1  0  0  0  0
 10 38  1  0  0  0  0
 10 65  1  0  0  0  0
 11 28  2  0  0  0  0
 11 36  1  0  0  0  0
 12 14  1  0  0  0  0
 12 45  1  0  0  0  0
 12 46  1  0  0  0  0
 13 15  1  0  0  0  0
 13 47  1  0  0  0  0
 13 48  1  0  0  0  0
 14 49  1  0  0  0  0
 14 50  1  0  0  0  0
 15 51  1  0  0  0  0
 15 52  1  0  0  0  0
 16 17  1  0  0  0  0
 16 18  2  0  0  0  0
 17 20  2  0  0  0  0
 17 53  1  0  0  0  0
 18 22  1  0  0  0  0
 18 54  1  0  0  0  0
 19 21  2  0  0  0  0
 19 26  1  0  0  0  0
 20 25  1  0  0  0  0
 21 23  1  0  0  0  0
 22 25  2  0  0  0  0
 22 55  1  0  0  0  0
 23 29  2  0  0  0  0
 23 30  1  0  0  0  0
 25 56  1  0  0  0  0
 26 32  1  0  0  0  0
 27 33  2  0  0  0  0
 27 58  1  0  0  0  0
 29 31  1  0  0  0  0
 29 59  1  0  0  0  0
 30 34  2  0  0  0  0
 30 60  1  0  0  0  0
 31 35  2  0  0  0  0
 32 36  2  0  0  0  0
 32 61  1  0  0  0  0
 33 62  1  0  0  0  0
 34 35  1  0  0  0  0
 34 63  1  0  0  0  0
 36 64  1  0  0  0  0
 37 38  1  0  0  0  0
 37 39  1  0  0  0  0
 37 66  1  0  0  0  0
 37 67  1  0  0  0  0
 39 40  2  0  0  0  0
 39 41  1  0  0  0  0
 40 42  1  0  0  0  0
 40 68  1  0  0  0  0
 41 43  2  0  0  0  0
 41 69  1  0  0  0  0
 42 44  2  0  0  0  0
 42 70  1  0  0  0  0
 43 44  1  0  0  0  0
 43 71  1  0  0  0  0
 44 72  1  0  0  0  0
M  END
> <PUBCHEM_COMPOUND_CID>
49830409

> <PUBCHEM_COMPOUND_CANONICALIZED>
1

> <PUBCHEM_CACTVS_COMPLEXITY>
940

> <PUBCHEM_CACTVS_HBOND_ACCEPTOR>
8

> <PUBCHEM_CACTVS_HBOND_DONOR>
2

> <PUBCHEM_CACTVS_ROTATABLE_BOND>
8

> <PUBCHEM_CACTVS_SUBSKEYS>
AAADceB/sABEAAAAAAAAAAAAAAAAAWLAAAA8eMECAAAWAAAB/AAAHgYQAAAADArl3ia90ZfMHAisAzV3dACC8K1xH7hJ2C04dpiKaPLB39HXJAholALYyCcYiMCOBAAAQAQAABAIAACACAAAIAAAAAAAAA==

> <PUBCHEM_IUPAC_OPENEYE_NAME>
N-[2-chloro-5-[5-[2-(3-morpholinoanilino)pyrimidin-4-yl]imidazo[2,1-b]thiazol-6-yl]phenyl]-2-phenyl-acetamide

> <PUBCHEM_IUPAC_CAS_NAME>
N-[2-chloro-5-[5-[2-[3-(4-morpholinyl)anilino]-4-pyrimidinyl]-6-imidazo[2,1-b]thiazolyl]phenyl]-2-phenylacetamide

> <PUBCHEM_IUPAC_NAME_MARKUP>
<I>N</I>-[2-chloro-5-[5-[2-(3-morpholin-4-ylanilino)pyrimidin-4-yl]imidazo[2,1-b][1,3]thiazol-6-yl]phenyl]-2-phenylacetamide

> <PUBCHEM_IUPAC_NAME>
N-[2-chloro-5-[5-[2-(3-morpholin-4-ylanilino)pyrimidin-4-yl]imidazo[2,1-b][1,3]thiazol-6-yl]phenyl]-2-phenylacetamide

> <PUBCHEM_IUPAC_SYSTEMATIC_NAME>
N-[2-chloranyl-5-[5-[2-[(3-morpholin-4-ylphenyl)amino]pyrimidin-4-yl]imidazo[2,1-b][1,3]thiazol-6-yl]phenyl]-2-phenyl-ethanamide

> <PUBCHEM_IUPAC_TRADITIONAL_NAME>
N-[2-chloro-5-[5-[2-(3-morpholinoanilino)pyrimidin-4-yl]imidazo[2,1-b]thiazol-6-yl]phenyl]-2-phenyl-acetamide

> <PUBCHEM_IUPAC_INCHI>
InChI=1S/C33H28ClN7O2S/c34-26-10-9-23(20-28(26)37-29(42)19-22-5-2-1-3-6-22)30-31(41-15-18-44-33(41)39-30)27-11-12-35-32(38-27)36-24-7-4-8-25(21-24)40-13-16-43-17-14-40/h1-12,15,18,20-21H,13-14,16-17,19H2,(H,37,42)(H,35,36,38)

> <PUBCHEM_IUPAC_INCHIKEY>
JTRNNNVASYCTLO-UHFFFAOYSA-N

> <PUBCHEM_XLOGP3_AA>
6.5

> <PUBCHEM_EXACT_MASS>
621.1713720

> <PUBCHEM_MOLECULAR_FORMULA>
C33H28ClN7O2S

> <PUBCHEM_MOLECULAR_WEIGHT>
622.1

> <PUBCHEM_SMILES>
C1COCCN1C2=CC=CC(=C2)NC3=NC=CC(=N3)C4=C(N=C5N4C=CS5)C6=CC(=C(C=C6)Cl)NC(=O)CC7=CC=CC=C7

> <PUBCHEM_OPENEYE_CAN_SMILES>
C1COCCN1C2=CC=CC(=C2)NC3=NC=CC(=N3)C4=C(N=C5N4C=CS5)C6=CC(=C(C=C6)Cl)NC(=O)CC7=CC=CC=C7

> <PUBCHEM_OPENEYE_ISO_SMILES>
C1COCCN1C2=CC=CC(=C2)NC3=NC=CC(=N3)C4=C(N=C5N4C=CS5)C6=CC(=C(C=C6)Cl)NC(=O)CC7=CC=CC=C7

> <PUBCHEM_CACTVS_TPSA>
125

> <PUBCHEM_MONOISOTOPIC_WEIGHT>
621.1713720

> <PUBCHEM_TOTAL_CHARGE>
0

> <PUBCHEM_HEAVY_ATOM_COUNT>
44

> <PUBCHEM_ATOM_DEF_STEREO_COUNT>
0

> <PUBCHEM_ATOM_UDEF_STEREO_COUNT>
0

> <PUBCHEM_BOND_DEF_STEREO_COUNT>
0

> <PUBCHEM_BOND_UDEF_STEREO_COUNT>
0

> <PUBCHEM_ISOTOPIC_ATOM_COUNT>
0

> <PUBCHEM_COMPONENT_COUNT>
1

> <PUBCHEM_CACTVS_TAUTO_COUNT>
-1

> <PUBCHEM_COORDINATE_TYPE>
1
5
255

> <PUBCHEM_BONDANNOTATIONS>
11  28  8
11  36  8
16  17  8
16  18  8
17  20  8
18  22  8
19  21  8
2  24  8
2  33  8
20  25  8
22  25  8
23  29  8
23  30  8
26  32  8
27  33  8
29  31  8
30  34  8
31  35  8
32  36  8
34  35  8
39  40  8
39  41  8
40  42  8
41  43  8
42  44  8
43  44  8
6  19  8
6  24  8
6  27  8
8  21  8
8  24  8
9  26  8
9  28  8

$$$$
