9927943
  -OEChem-03202505332D

 44 46  0     0  0  0  0  0  0999 V2000
    5.4804    0.4974    0.0000 O   0  0  0  0  0  0  0  0  0  0  0  0
    2.0000   -0.5372    0.0000 O   0  0  0  0  0  0  0  0  0  0  0  0
    2.0000   -2.5372    0.0000 O   0  0  0  0  0  0  0  0  0  0  0  0
    8.9443    0.5374    0.0000 O   0  0  0  0  0  0  0  0  0  0  0  0
    8.9212    2.5373    0.0000 O   0  0  0  0  0  0  0  0  0  0  0  0
    5.4920   -2.5719    0.0000 N   0  0  0  0  0  0  0  0  0  0  0  0
    4.5981   -1.0372    0.0000 C   0  0  0  0  0  0  0  0  0  0  0  0
    4.5981   -2.0372    0.0000 C   0  0  0  0  0  0  0  0  0  0  0  0
    5.4920   -0.5026    0.0000 C   0  0  0  0  0  0  0  0  0  0  0  0
    3.7320   -0.5372    0.0000 C   0  0  0  0  0  0  0  0  0  0  0  0
    2.8660   -1.0372    0.0000 C   0  0  0  0  0  0  0  0  0  0  0  0
    3.7320   -2.5372    0.0000 C   0  0  0  0  0  0  0  0  0  0  0  0
    2.8660   -2.0372    0.0000 C   0  0  0  0  0  0  0  0  0  0  0  0
    6.3981   -1.0164    0.0000 C   0  0  0  0  0  0  0  0  0  0  0  0
    6.3406    1.0074    0.0000 C   0  0  0  0  0  0  0  0  0  0  0  0
    6.3981   -2.0580    0.0000 C   0  0  0  0  0  0  0  0  0  0  0  0
    7.2124    0.5174    0.0000 C   0  0  0  0  0  0  0  0  0  0  0  0
    8.0726    1.0274    0.0000 C   0  0  0  0  0  0  0  0  0  0  0  0
    6.3291    2.0073    0.0000 C   0  0  0  0  0  0  0  0  0  0  0  0
    8.0610    2.0273    0.0000 C   0  0  0  0  0  0  0  0  0  0  0  0
    7.1893    2.5173    0.0000 C   0  0  0  0  0  0  0  0  0  0  0  0
    2.0000    0.4628    0.0000 C   0  0  0  0  0  0  0  0  0  0  0  0
    2.0000   -3.5372    0.0000 C   0  0  0  0  0  0  0  0  0  0  0  0
    9.8045    1.0474    0.0000 C   0  0  0  0  0  0  0  0  0  0  0  0
    8.9096    3.5372    0.0000 C   0  0  0  0  0  0  0  0  0  0  0  0
    3.7320    0.0828    0.0000 H   0  0  0  0  0  0  0  0  0  0  0  0
    3.7320   -3.1572    0.0000 H   0  0  0  0  0  0  0  0  0  0  0  0
    6.9338   -0.7043    0.0000 H   0  0  0  0  0  0  0  0  0  0  0  0
    6.9338   -2.3701    0.0000 H   0  0  0  0  0  0  0  0  0  0  0  0
    7.2196   -0.1026    0.0000 H   0  0  0  0  0  0  0  0  0  0  0  0
    5.7886    2.3110    0.0000 H   0  0  0  0  0  0  0  0  0  0  0  0
    7.1821    3.1372    0.0000 H   0  0  0  0  0  0  0  0  0  0  0  0
    2.6200    0.4628    0.0000 H   0  0  0  0  0  0  0  0  0  0  0  0
    2.0000    1.0828    0.0000 H   0  0  0  0  0  0  0  0  0  0  0  0
    1.3800    0.4628    0.0000 H   0  0  0  0  0  0  0  0  0  0  0  0
    1.3800   -3.5372    0.0000 H   0  0  0  0  0  0  0  0  0  0  0  0
    2.0000   -4.1572    0.0000 H   0  0  0  0  0  0  0  0  0  0  0  0
    2.6200   -3.5372    0.0000 H   0  0  0  0  0  0  0  0  0  0  0  0
   10.1207    0.5141    0.0000 H   0  0  0  0  0  0  0  0  0  0  0  0
   10.3378    1.3636    0.0000 H   0  0  0  0  0  0  0  0  0  0  0  0
    9.4883    1.5807    0.0000 H   0  0  0  0  0  0  0  0  0  0  0  0
    9.5296    3.5444    0.0000 H   0  0  0  0  0  0  0  0  0  0  0  0
    8.9025    4.1572    0.0000 H   0  0  0  0  0  0  0  0  0  0  0  0
    8.2897    3.5301    0.0000 H   0  0  0  0  0  0  0  0  0  0  0  0
  1  9  1  0  0  0  0
  1 15  1  0  0  0  0
  2 11  1  0  0  0  0
  2 22  1  0  0  0  0
  3 13  1  0  0  0  0
  3 23  1  0  0  0  0
  4 18  1  0  0  0  0
  4 24  1  0  0  0  0
  5 20  1  0  0  0  0
  5 25  1  0  0  0  0
  6  8  2  0  0  0  0
  6 16  1  0  0  0  0
  7  8  1  0  0  0  0
  7  9  2  0  0  0  0
  7 10  1  0  0  0  0
  8 12  1  0  0  0  0
  9 14  1  0  0  0  0
 10 11  2  0  0  0  0
 10 26  1  0  0  0  0
 11 13  1  0  0  0  0
 12 13  2  0  0  0  0
 12 27  1  0  0  0  0
 14 16  2  0  0  0  0
 14 28  1  0  0  0  0
 15 17  2  0  0  0  0
 15 19  1  0  0  0  0
 16 29  1  0  0  0  0
 17 18  1  0  0  0  0
 17 30  1  0  0  0  0
 18 20  2  0  0  0  0
 19 21  2  0  0  0  0
 19 31  1  0  0  0  0
 20 21  1  0  0  0  0
 21 32  1  0  0  0  0
 22 33  1  0  0  0  0
 22 34  1  0  0  0  0
 22 35  1  0  0  0  0
 23 36  1  0  0  0  0
 23 37  1  0  0  0  0
 23 38  1  0  0  0  0
 24 39  1  0  0  0  0
 24 40  1  0  0  0  0
 24 41  1  0  0  0  0
 25 42  1  0  0  0  0
 25 43  1  0  0  0  0
 25 44  1  0  0  0  0
M  END
> <PUBCHEM_COMPOUND_CID>
9927943

> <PUBCHEM_COMPOUND_CANONICALIZED>
1

> <PUBCHEM_CACTVS_COMPLEXITY>
409

> <PUBCHEM_CACTVS_HBOND_ACCEPTOR>
6

> <PUBCHEM_CACTVS_HBOND_DONOR>
0

> <PUBCHEM_CACTVS_ROTATABLE_BOND>
6

> <PUBCHEM_CACTVS_SUBSKEYS>
AAADceB6OAAAAAAAAAAAAAAAAAAAAAAAAAA8YIAAAAAAAACx9AAAHgAAAAAADAzBngY+xvIIFACgAzRnRACCiCAxIiAI2CA+7JgNJ+LEsZuGOCrnwB3K6Afw8L8OIUABCgACQABCgAIUAASAAAAAAAAAAA==

> <PUBCHEM_IUPAC_OPENEYE_NAME>
4-(3,4-dimethoxyphenoxy)-6,7-dimethoxy-quinoline

> <PUBCHEM_IUPAC_CAS_NAME>
4-(3,4-dimethoxyphenoxy)-6,7-dimethoxyquinoline

> <PUBCHEM_IUPAC_NAME_MARKUP>
4-(3,4-dimethoxyphenoxy)-6,7-dimethoxyquinoline

> <PUBCHEM_IUPAC_NAME>
4-(3,4-dimethoxyphenoxy)-6,7-dimethoxyquinoline

> <PUBCHEM_IUPAC_SYSTEMATIC_NAME>
4-(3,4-dimethoxyphenoxy)-6,7-dimethoxy-quinoline

> <PUBCHEM_IUPAC_TRADITIONAL_NAME>
4-(3,4-dimethoxyphenoxy)-6,7-dimethoxy-quinoline

> <PUBCHEM_IUPAC_INCHI>
InChI=1S/C19H19NO5/c1-21-16-6-5-12(9-17(16)22-2)25-15-7-8-20-14-11-19(24-4)18(23-3)10-13(14)15/h5-11H,1-4H3

> <PUBCHEM_IUPAC_INCHIKEY>
ZQSHUGGLESWJFP-UHFFFAOYSA-N

> <PUBCHEM_XLOGP3_AA>
3.6

> <PUBCHEM_EXACT_MASS>
341.12632271

> <PUBCHEM_MOLECULAR_FORMULA>
C19H19NO5

> <PUBCHEM_MOLECULAR_WEIGHT>
341.4

> <PUBCHEM_SMILES>
COC1=C(C=C(C=C1)OC2=C3C=C(C(=CC3=NC=C2)OC)OC)OC

> <PUBCHEM_OPENEYE_CAN_SMILES>
COC1=C(C=C(C=C1)OC2=C3C=C(C(=CC3=NC=C2)OC)OC)OC

> <PUBCHEM_OPENEYE_ISO_SMILES>
COC1=C(C=C(C=C1)OC2=C3C=C(C(=CC3=NC=C2)OC)OC)OC

> <PUBCHEM_CACTVS_TPSA>
59

> <PUBCHEM_MONOISOTOPIC_WEIGHT>
341.12632271

> <PUBCHEM_TOTAL_CHARGE>
0

> <PUBCHEM_HEAVY_ATOM_COUNT>
25

> <PUBCHEM_ATOM_DEF_STEREO_COUNT>
0

> <PUBCHEM_ATOM_UDEF_STEREO_COUNT>
0

> <PUBCHEM_BOND_DEF_STEREO_COUNT>
0

> <PUBCHEM_BOND_UDEF_STEREO_COUNT>
0

> <PUBCHEM_ISOTOPIC_ATOM_COUNT>
0

> <PUBCHEM_COMPONENT_COUNT>
1

> <PUBCHEM_CACTVS_TAUTO_COUNT>
-1

> <PUBCHEM_COORDINATE_TYPE>
1
5
255

> <PUBCHEM_BONDANNOTATIONS>
10  11  8
11  13  8
12  13  8
14  16  8
15  17  8
15  19  8
17  18  8
18  20  8
19  21  8
20  21  8
6  16  8
6  8  8
7  10  8
7  8  8
7  9  8
8  12  8
9  14  8

$$$$
