44317866
  -OEChem-03202507232D

 30 32  0     0  0  0  0  0  0999 V2000
    7.3991   -2.5447    0.0000 Cl  0  0  0  0  0  0  0  0  0  0  0  0
    8.3031    0.3988    0.0000 O   0  0  0  0  0  0  0  0  0  0  0  0
    4.5274    0.3159    0.0000 N   0  0  0  0  0  0  0  0  0  0  0  0
    6.6498    0.9150    0.0000 N   0  0  0  0  0  0  0  0  0  0  0  0
    2.0000   -0.8083    0.0000 N   0  0  0  0  0  0  0  0  0  0  0  0
    7.9235    2.0887    0.0000 N   0  0  0  0  0  0  0  0  0  0  0  0
    5.3364   -0.2719    0.0000 C   0  0  0  0  0  0  0  0  0  0  0  0
    5.0274   -1.2229    0.0000 C   0  0  0  0  0  0  0  0  0  0  0  0
    4.0274   -1.2229    0.0000 C   0  0  0  0  0  0  0  0  0  0  0  0
    3.7183   -0.2719    0.0000 C   0  0  0  0  0  0  0  0  0  0  0  0
    6.3518   -0.0396    0.0000 C   0  0  0  0  0  0  0  0  0  0  0  0
    5.7123   -2.0076    0.0000 C   0  0  0  0  0  0  0  0  0  0  0  0
    7.0547   -0.8083    0.0000 C   0  0  0  0  0  0  0  0  0  0  0  0
    3.3424   -2.0076    0.0000 C   0  0  0  0  0  0  0  0  0  0  0  0
    6.7328   -1.7989    0.0000 C   0  0  0  0  0  0  0  0  0  0  0  0
    2.7029   -0.0396    0.0000 C   0  0  0  0  0  0  0  0  0  0  0  0
    2.3219   -1.7989    0.0000 C   0  0  0  0  0  0  0  0  0  0  0  0
    7.6255    1.1342    0.0000 C   0  0  0  0  0  0  0  0  0  0  0  0
    8.8991    2.3080    0.0000 C   0  0  0  0  0  0  0  0  0  0  0  0
    4.5274    0.9359    0.0000 H   0  0  0  0  0  0  0  0  0  0  0  0
    5.5139   -2.5950    0.0000 H   0  0  0  0  0  0  0  0  0  0  0  0
    7.6607   -0.6770    0.0000 H   0  0  0  0  0  0  0  0  0  0  0  0
    3.5408   -2.5950    0.0000 H   0  0  0  0  0  0  0  0  0  0  0  0
    2.5182    0.5522    0.0000 H   0  0  0  0  0  0  0  0  0  0  0  0
    6.2296    1.3709    0.0000 H   0  0  0  0  0  0  0  0  0  0  0  0
    1.9088   -2.2613    0.0000 H   0  0  0  0  0  0  0  0  0  0  0  0
    7.5033    2.5447    0.0000 H   0  0  0  0  0  0  0  0  0  0  0  0
    9.0350    1.7030    0.0000 H   0  0  0  0  0  0  0  0  0  0  0  0
    9.5041    2.4438    0.0000 H   0  0  0  0  0  0  0  0  0  0  0  0
    8.7632    2.9129    0.0000 H   0  0  0  0  0  0  0  0  0  0  0  0
  1 15  1  0  0  0  0
  2 18  2  0  0  0  0
  3  7  1  0  0  0  0
  3 10  1  0  0  0  0
  3 20  1  0  0  0  0
  4 11  1  0  0  0  0
  4 18  1  0  0  0  0
  4 25  1  0  0  0  0
  5 16  2  0  0  0  0
  5 17  1  0  0  0  0
  6 18  1  0  0  0  0
  6 19  1  0  0  0  0
  6 27  1  0  0  0  0
  7  8  2  0  0  0  0
  7 11  1  0  0  0  0
  8  9  1  0  0  0  0
  8 12  1  0  0  0  0
  9 10  2  0  0  0  0
  9 14  1  0  0  0  0
 10 16  1  0  0  0  0
 11 13  2  0  0  0  0
 12 15  2  0  0  0  0
 12 21  1  0  0  0  0
 13 15  1  0  0  0  0
 13 22  1  0  0  0  0
 14 17  2  0  0  0  0
 14 23  1  0  0  0  0
 16 24  1  0  0  0  0
 17 26  1  0  0  0  0
 19 28  1  0  0  0  0
 19 29  1  0  0  0  0
 19 30  1  0  0  0  0
M  END
> <PUBCHEM_COMPOUND_CID>
44317866

> <PUBCHEM_COMPOUND_CANONICALIZED>
1

> <PUBCHEM_CACTVS_COMPLEXITY>
354

> <PUBCHEM_CACTVS_HBOND_ACCEPTOR>
2

> <PUBCHEM_CACTVS_HBOND_DONOR>
3

> <PUBCHEM_CACTVS_ROTATABLE_BOND>
1

> <PUBCHEM_CACTVS_SUBSKEYS>
AAADccBzoAAEAAAAAAAAAAAAAAAAAWAAAAA8QAAAAAAAAFgB/gAAHgIQAAAADArBHiQ/wPLJkACoAzRnVACCgCQxFyAI2aA4dpiIYOLBk5GUIAholgLIyCcQgMAOgABAYAICACAAAIDABAQAQAAAAAAAAA==

> <PUBCHEM_IUPAC_OPENEYE_NAME>
1-(6-chloro-9H-pyrido[3,4-b]indol-8-yl)-3-methyl-urea

> <PUBCHEM_IUPAC_CAS_NAME>
1-(6-chloro-9H-pyrido[3,4-b]indol-8-yl)-3-methylurea

> <PUBCHEM_IUPAC_NAME_MARKUP>
1-(6-chloro-9<I>H</I>-pyrido[3,4-b]indol-8-yl)-3-methylurea

> <PUBCHEM_IUPAC_NAME>
1-(6-chloro-9H-pyrido[3,4-b]indol-8-yl)-3-methylurea

> <PUBCHEM_IUPAC_SYSTEMATIC_NAME>
1-(6-chloranyl-9H-pyrido[3,4-b]indol-8-yl)-3-methyl-urea

> <PUBCHEM_IUPAC_TRADITIONAL_NAME>
1-(6-chloro-9H-beta-carbolin-8-yl)-3-methyl-urea

> <PUBCHEM_IUPAC_INCHI>
InChI=1S/C13H11ClN4O/c1-15-13(19)18-10-5-7(14)4-9-8-2-3-16-6-11(8)17-12(9)10/h2-6,17H,1H3,(H2,15,18,19)

> <PUBCHEM_IUPAC_INCHIKEY>
LJBJXWFBTYQAFX-UHFFFAOYSA-N

> <PUBCHEM_XLOGP3_AA>
1.9

> <PUBCHEM_EXACT_MASS>
274.0621387

> <PUBCHEM_MOLECULAR_FORMULA>
C13H11ClN4O

> <PUBCHEM_MOLECULAR_WEIGHT>
274.70

> <PUBCHEM_SMILES>
CNC(=O)NC1=CC(=CC2=C1NC3=C2C=CN=C3)Cl

> <PUBCHEM_OPENEYE_CAN_SMILES>
CNC(=O)NC1=CC(=CC2=C1NC3=C2C=CN=C3)Cl

> <PUBCHEM_OPENEYE_ISO_SMILES>
CNC(=O)NC1=CC(=CC2=C1NC3=C2C=CN=C3)Cl

> <PUBCHEM_CACTVS_TPSA>
69.8

> <PUBCHEM_MONOISOTOPIC_WEIGHT>
274.0621387

> <PUBCHEM_TOTAL_CHARGE>
0

> <PUBCHEM_HEAVY_ATOM_COUNT>
19

> <PUBCHEM_ATOM_DEF_STEREO_COUNT>
0

> <PUBCHEM_ATOM_UDEF_STEREO_COUNT>
0

> <PUBCHEM_BOND_DEF_STEREO_COUNT>
0

> <PUBCHEM_BOND_UDEF_STEREO_COUNT>
0

> <PUBCHEM_ISOTOPIC_ATOM_COUNT>
0

> <PUBCHEM_COMPONENT_COUNT>
1

> <PUBCHEM_CACTVS_TAUTO_COUNT>
-1

> <PUBCHEM_COORDINATE_TYPE>
1
5
255

> <PUBCHEM_BONDANNOTATIONS>
10  16  8
11  13  8
12  15  8
13  15  8
14  17  8
3  10  8
3  7  8
5  16  8
5  17  8
7  11  8
7  8  8
8  12  8
8  9  8
9  10  8
9  14  8

$$$$
