44466196
  -OEChem-03202507062D

 41 42  0     0  0  0  0  0  0999 V2000
    5.4641    3.5950    0.0000 O   0  0  0  0  0  0  0  0  0  0  0  0
    3.7320   -2.4050    0.0000 N   0  0  0  0  0  0  0  0  0  0  0  0
    5.4641   -0.4050    0.0000 N   0  0  0  0  0  0  0  0  0  0  0  0
    4.5981   -1.9050    0.0000 C   0  0  0  0  0  0  0  0  0  0  0  0
    4.5981   -0.9050    0.0000 C   0  0  0  0  0  0  0  0  0  0  0  0
    3.7320   -3.4050    0.0000 C   0  0  0  0  0  0  0  0  0  0  0  0
    2.8660   -1.9050    0.0000 C   0  0  0  0  0  0  0  0  0  0  0  0
    5.4641    0.5950    0.0000 C   0  0  0  0  0  0  0  0  0  0  0  0
    6.3301    1.0950    0.0000 C   0  0  0  0  0  0  0  0  0  0  0  0
    6.3301    2.0950    0.0000 C   0  0  0  0  0  0  0  0  0  0  0  0
    2.8660   -3.9050    0.0000 C   0  0  0  0  0  0  0  0  0  0  0  0
    2.0000   -2.4050    0.0000 C   0  0  0  0  0  0  0  0  0  0  0  0
    4.5981    1.0950    0.0000 C   0  0  0  0  0  0  0  0  0  0  0  0
    5.4641    2.5950    0.0000 C   0  0  0  0  0  0  0  0  0  0  0  0
    7.2241    0.5603    0.0000 C   0  0  0  0  0  0  0  0  0  0  0  0
    4.5981    2.0950    0.0000 C   0  0  0  0  0  0  0  0  0  0  0  0
    7.2241    2.6297    0.0000 C   0  0  0  0  0  0  0  0  0  0  0  0
    8.1301    1.0742    0.0000 C   0  0  0  0  0  0  0  0  0  0  0  0
    8.1301    2.1158    0.0000 C   0  0  0  0  0  0  0  0  0  0  0  0
    4.8101   -2.4876    0.0000 H   0  0  0  0  0  0  0  0  0  0  0  0
    5.2087   -1.7973    0.0000 H   0  0  0  0  0  0  0  0  0  0  0  0
    4.3860   -0.3224    0.0000 H   0  0  0  0  0  0  0  0  0  0  0  0
    3.9875   -1.0127    0.0000 H   0  0  0  0  0  0  0  0  0  0  0  0
    3.9441   -3.9876    0.0000 H   0  0  0  0  0  0  0  0  0  0  0  0
    4.3426   -3.2973    0.0000 H   0  0  0  0  0  0  0  0  0  0  0  0
    3.2646   -1.4300    0.0000 H   0  0  0  0  0  0  0  0  0  0  0  0
    2.4675   -1.4300    0.0000 H   0  0  0  0  0  0  0  0  0  0  0  0
    6.0010   -0.7150    0.0000 H   0  0  0  0  0  0  0  0  0  0  0  0
    2.5560   -3.3681    0.0000 H   0  0  0  0  0  0  0  0  0  0  0  0
    2.3291   -4.2150    0.0000 H   0  0  0  0  0  0  0  0  0  0  0  0
    3.1760   -4.4419    0.0000 H   0  0  0  0  0  0  0  0  0  0  0  0
    1.6900   -1.8681    0.0000 H   0  0  0  0  0  0  0  0  0  0  0  0
    1.4631   -2.7150    0.0000 H   0  0  0  0  0  0  0  0  0  0  0  0
    2.3100   -2.9419    0.0000 H   0  0  0  0  0  0  0  0  0  0  0  0
    4.0611    0.7850    0.0000 H   0  0  0  0  0  0  0  0  0  0  0  0
    7.2169   -0.0596    0.0000 H   0  0  0  0  0  0  0  0  0  0  0  0
    4.0611    2.4050    0.0000 H   0  0  0  0  0  0  0  0  0  0  0  0
    7.2169    3.2496    0.0000 H   0  0  0  0  0  0  0  0  0  0  0  0
    8.6659    0.7621    0.0000 H   0  0  0  0  0  0  0  0  0  0  0  0
    8.6659    2.4279    0.0000 H   0  0  0  0  0  0  0  0  0  0  0  0
    4.9272    3.9050    0.0000 H   0  0  0  0  0  0  0  0  0  0  0  0
  1 14  1  0  0  0  0
  1 41  1  0  0  0  0
  2  4  1  0  0  0  0
  2  6  1  0  0  0  0
  2  7  1  0  0  0  0
  3  5  1  0  0  0  0
  3  8  1  0  0  0  0
  3 28  1  0  0  0  0
  4  5  1  0  0  0  0
  4 20  1  0  0  0  0
  4 21  1  0  0  0  0
  5 22  1  0  0  0  0
  5 23  1  0  0  0  0
  6 11  1  0  0  0  0
  6 24  1  0  0  0  0
  6 25  1  0  0  0  0
  7 12  1  0  0  0  0
  7 26  1  0  0  0  0
  7 27  1  0  0  0  0
  8  9  1  0  0  0  0
  8 13  2  0  0  0  0
  9 10  1  0  0  0  0
  9 15  2  0  0  0  0
 10 14  1  0  0  0  0
 10 17  2  0  0  0  0
 11 29  1  0  0  0  0
 11 30  1  0  0  0  0
 11 31  1  0  0  0  0
 12 32  1  0  0  0  0
 12 33  1  0  0  0  0
 12 34  1  0  0  0  0
 13 16  1  0  0  0  0
 13 35  1  0  0  0  0
 14 16  2  0  0  0  0
 15 18  1  0  0  0  0
 15 36  1  0  0  0  0
 16 37  1  0  0  0  0
 17 19  1  0  0  0  0
 17 38  1  0  0  0  0
 18 19  2  0  0  0  0
 18 39  1  0  0  0  0
 19 40  1  0  0  0  0
M  END
> <PUBCHEM_COMPOUND_CID>
44466196

> <PUBCHEM_COMPOUND_CANONICALIZED>
1

> <PUBCHEM_CACTVS_COMPLEXITY>
255

> <PUBCHEM_CACTVS_HBOND_ACCEPTOR>
3

> <PUBCHEM_CACTVS_HBOND_DONOR>
2

> <PUBCHEM_CACTVS_ROTATABLE_BOND>
6

> <PUBCHEM_CACTVS_SUBSKEYS>
AAADceB7IAAAAAAAAAAAAAAAAAAAAAAAAAAwYAAAAAAAAADBUAAAHgAQCAAADAzBmAQyxsPAAgCAAiRCQACCAAAhIgAIiIAObIgIZiLCkZOUcAhk0BHI2AewwLAOgEABQAAaAAAAgAKAADQAAAAAAAAAAA==

> <PUBCHEM_IUPAC_OPENEYE_NAME>
4-[2-(diethylamino)ethylamino]naphthalen-1-ol

> <PUBCHEM_IUPAC_CAS_NAME>
4-[2-(diethylamino)ethylamino]-1-naphthalenol

> <PUBCHEM_IUPAC_NAME_MARKUP>
4-[2-(diethylamino)ethylamino]naphthalen-1-ol

> <PUBCHEM_IUPAC_NAME>
4-[2-(diethylamino)ethylamino]naphthalen-1-ol

> <PUBCHEM_IUPAC_SYSTEMATIC_NAME>
4-[2-(diethylamino)ethylamino]naphthalen-1-ol

> <PUBCHEM_IUPAC_TRADITIONAL_NAME>
4-[2-(diethylamino)ethylamino]-1-naphthol

> <PUBCHEM_IUPAC_INCHI>
InChI=1S/C16H22N2O/c1-3-18(4-2)12-11-17-15-9-10-16(19)14-8-6-5-7-13(14)15/h5-10,17,19H,3-4,11-12H2,1-2H3

> <PUBCHEM_IUPAC_INCHIKEY>
LVUBFHBEMVTCJQ-UHFFFAOYSA-N

> <PUBCHEM_XLOGP3_AA>
3.6

> <PUBCHEM_EXACT_MASS>
258.173213330

> <PUBCHEM_MOLECULAR_FORMULA>
C16H22N2O

> <PUBCHEM_MOLECULAR_WEIGHT>
258.36

> <PUBCHEM_SMILES>
CCN(CC)CCNC1=CC=C(C2=CC=CC=C21)O

> <PUBCHEM_OPENEYE_CAN_SMILES>
CCN(CC)CCNC1=CC=C(C2=CC=CC=C21)O

> <PUBCHEM_OPENEYE_ISO_SMILES>
CCN(CC)CCNC1=CC=C(C2=CC=CC=C21)O

> <PUBCHEM_CACTVS_TPSA>
35.5

> <PUBCHEM_MONOISOTOPIC_WEIGHT>
258.173213330

> <PUBCHEM_TOTAL_CHARGE>
0

> <PUBCHEM_HEAVY_ATOM_COUNT>
19

> <PUBCHEM_ATOM_DEF_STEREO_COUNT>
0

> <PUBCHEM_ATOM_UDEF_STEREO_COUNT>
0

> <PUBCHEM_BOND_DEF_STEREO_COUNT>
0

> <PUBCHEM_BOND_UDEF_STEREO_COUNT>
0

> <PUBCHEM_ISOTOPIC_ATOM_COUNT>
0

> <PUBCHEM_COMPONENT_COUNT>
1

> <PUBCHEM_CACTVS_TAUTO_COUNT>
-1

> <PUBCHEM_COORDINATE_TYPE>
1
5
255

> <PUBCHEM_BONDANNOTATIONS>
10  14  8
10  17  8
13  16  8
14  16  8
15  18  8
17  19  8
18  19  8
8  13  8
8  9  8
9  10  8
9  15  8

$$$$
