24905168
  -OEChem-03202500062D

 38 40  0     0  0  0  0  0  0999 V2000
    5.9209    3.4501    0.0000 O   0  0  0  0  0  0  0  0  0  0  0  0
    4.6783   -1.9615    0.0000 N   0  0  0  0  0  0  0  0  0  0  0  0
    5.2619   -1.1567    0.0000 N   0  0  0  0  0  0  0  0  0  0  0  0
    2.8660   -2.1567    0.0000 N   0  0  0  0  0  0  0  0  0  0  0  0
    2.0000   -0.6567    0.0000 N   0  0  0  0  0  0  0  0  0  0  0  0
    2.8660    0.8433    0.0000 N   0  0  0  0  0  0  0  0  0  0  0  0
    4.9889   -2.9120    0.0000 C   0  0  0  0  0  0  0  0  0  0  0  0
    3.7320   -1.6567    0.0000 C   0  0  0  0  0  0  0  0  0  0  0  0
    3.7320   -0.6567    0.0000 C   0  0  0  0  0  0  0  0  0  0  0  0
    4.6783   -0.3520    0.0000 C   0  0  0  0  0  0  0  0  0  0  0  0
    5.9674   -3.1182    0.0000 C   0  0  0  0  0  0  0  0  0  0  0  0
    4.3211   -3.6563    0.0000 C   0  0  0  0  0  0  0  0  0  0  0  0
    4.9889    0.5985    0.0000 C   0  0  0  0  0  0  0  0  0  0  0  0
    2.8660   -0.1567    0.0000 C   0  0  0  0  0  0  0  0  0  0  0  0
    5.9674    0.8047    0.0000 C   0  0  0  0  0  0  0  0  0  0  0  0
    4.3211    1.3428    0.0000 C   0  0  0  0  0  0  0  0  0  0  0  0
    2.0000   -1.6567    0.0000 C   0  0  0  0  0  0  0  0  0  0  0  0
    6.2781    1.7552    0.0000 C   0  0  0  0  0  0  0  0  0  0  0  0
    4.6318    2.2933    0.0000 C   0  0  0  0  0  0  0  0  0  0  0  0
    5.6103    2.4996    0.0000 C   0  0  0  0  0  0  0  0  0  0  0  0
    6.8994    3.6563    0.0000 C   0  0  0  0  0  0  0  0  0  0  0  0
    5.1815   -3.5013    0.0000 H   0  0  0  0  0  0  0  0  0  0  0  0
    5.8396   -3.7249    0.0000 H   0  0  0  0  0  0  0  0  0  0  0  0
    6.5741   -3.2461    0.0000 H   0  0  0  0  0  0  0  0  0  0  0  0
    6.0953   -2.5115    0.0000 H   0  0  0  0  0  0  0  0  0  0  0  0
    3.8596   -3.2422    0.0000 H   0  0  0  0  0  0  0  0  0  0  0  0
    3.9070   -4.1178    0.0000 H   0  0  0  0  0  0  0  0  0  0  0  0
    4.7826   -4.0704    0.0000 H   0  0  0  0  0  0  0  0  0  0  0  0
    6.3815    0.3433    0.0000 H   0  0  0  0  0  0  0  0  0  0  0  0
    3.7144    1.2150    0.0000 H   0  0  0  0  0  0  0  0  0  0  0  0
    1.4631   -1.9667    0.0000 H   0  0  0  0  0  0  0  0  0  0  0  0
    6.8848    1.8831    0.0000 H   0  0  0  0  0  0  0  0  0  0  0  0
    4.2177    2.7548    0.0000 H   0  0  0  0  0  0  0  0  0  0  0  0
    2.3291    1.1533    0.0000 H   0  0  0  0  0  0  0  0  0  0  0  0
    3.4030    1.1533    0.0000 H   0  0  0  0  0  0  0  0  0  0  0  0
    7.0273    3.0496    0.0000 H   0  0  0  0  0  0  0  0  0  0  0  0
    7.5061    3.7842    0.0000 H   0  0  0  0  0  0  0  0  0  0  0  0
    6.7716    4.2630    0.0000 H   0  0  0  0  0  0  0  0  0  0  0  0
  1 20  1  0  0  0  0
  1 21  1  0  0  0  0
  2  3  1  0  0  0  0
  2  7  1  0  0  0  0
  2  8  1  0  0  0  0
  3 10  2  0  0  0  0
  4  8  2  0  0  0  0
  4 17  1  0  0  0  0
  5 14  1  0  0  0  0
  5 17  2  0  0  0  0
  6 14  1  0  0  0  0
  6 34  1  0  0  0  0
  6 35  1  0  0  0  0
  7 11  1  0  0  0  0
  7 12  1  0  0  0  0
  7 22  1  0  0  0  0
  8  9  1  0  0  0  0
  9 10  1  0  0  0  0
  9 14  2  0  0  0  0
 10 13  1  0  0  0  0
 11 23  1  0  0  0  0
 11 24  1  0  0  0  0
 11 25  1  0  0  0  0
 12 26  1  0  0  0  0
 12 27  1  0  0  0  0
 12 28  1  0  0  0  0
 13 15  2  0  0  0  0
 13 16  1  0  0  0  0
 15 18  1  0  0  0  0
 15 29  1  0  0  0  0
 16 19  2  0  0  0  0
 16 30  1  0  0  0  0
 17 31  1  0  0  0  0
 18 20  2  0  0  0  0
 18 32  1  0  0  0  0
 19 20  1  0  0  0  0
 19 33  1  0  0  0  0
 21 36  1  0  0  0  0
 21 37  1  0  0  0  0
 21 38  1  0  0  0  0
M  END
> <PUBCHEM_COMPOUND_CID>
24905168

> <PUBCHEM_COMPOUND_CANONICALIZED>
1

> <PUBCHEM_CACTVS_COMPLEXITY>
345

> <PUBCHEM_CACTVS_HBOND_ACCEPTOR>
5

> <PUBCHEM_CACTVS_HBOND_DONOR>
1

> <PUBCHEM_CACTVS_ROTATABLE_BOND>
3

> <PUBCHEM_CACTVS_SUBSKEYS>
AAADceBzoAAAAAAAAAAAAAAAAAAAAWAAAAA8QAAAAAAAAFgB/AAAHgAYAAAADCzBnwY3tt5IFACiAyZjZACSjCsxoKAd2CAuTJiMLqLE+duEtChsyBPI6CeQ0OEOIAAAAAAAAABAAAAAAAAAAAAAAAAAAA==

> <PUBCHEM_IUPAC_OPENEYE_NAME>
1-isopropyl-3-(4-methoxyphenyl)pyrazolo[3,4-d]pyrimidin-4-amine

> <PUBCHEM_IUPAC_CAS_NAME>
3-(4-methoxyphenyl)-1-propan-2-yl-4-pyrazolo[3,4-d]pyrimidinamine

> <PUBCHEM_IUPAC_NAME_MARKUP>
3-(4-methoxyphenyl)-1-propan-2-ylpyrazolo[3,4-d]pyrimidin-4-amine

> <PUBCHEM_IUPAC_NAME>
3-(4-methoxyphenyl)-1-propan-2-ylpyrazolo[3,4-d]pyrimidin-4-amine

> <PUBCHEM_IUPAC_SYSTEMATIC_NAME>
3-(4-methoxyphenyl)-1-propan-2-yl-pyrazolo[3,4-d]pyrimidin-4-amine

> <PUBCHEM_IUPAC_TRADITIONAL_NAME>
[1-isopropyl-3-(4-methoxyphenyl)pyrazolo[3,4-d]pyrimidin-4-yl]amine

> <PUBCHEM_IUPAC_INCHI>
InChI=1S/C15H17N5O/c1-9(2)20-15-12(14(16)17-8-18-15)13(19-20)10-4-6-11(21-3)7-5-10/h4-9H,1-3H3,(H2,16,17,18)

> <PUBCHEM_IUPAC_INCHIKEY>
DUPSNQFPAJUAKA-UHFFFAOYSA-N

> <PUBCHEM_XLOGP3_AA>
2.2

> <PUBCHEM_EXACT_MASS>
283.14331018

> <PUBCHEM_MOLECULAR_FORMULA>
C15H17N5O

> <PUBCHEM_MOLECULAR_WEIGHT>
283.33

> <PUBCHEM_SMILES>
CC(C)N1C2=NC=NC(=C2C(=N1)C3=CC=C(C=C3)OC)N

> <PUBCHEM_OPENEYE_CAN_SMILES>
CC(C)N1C2=NC=NC(=C2C(=N1)C3=CC=C(C=C3)OC)N

> <PUBCHEM_OPENEYE_ISO_SMILES>
CC(C)N1C2=NC=NC(=C2C(=N1)C3=CC=C(C=C3)OC)N

> <PUBCHEM_CACTVS_TPSA>
78.9

> <PUBCHEM_MONOISOTOPIC_WEIGHT>
283.14331018

> <PUBCHEM_TOTAL_CHARGE>
0

> <PUBCHEM_HEAVY_ATOM_COUNT>
21

> <PUBCHEM_ATOM_DEF_STEREO_COUNT>
0

> <PUBCHEM_ATOM_UDEF_STEREO_COUNT>
0

> <PUBCHEM_BOND_DEF_STEREO_COUNT>
0

> <PUBCHEM_BOND_UDEF_STEREO_COUNT>
0

> <PUBCHEM_ISOTOPIC_ATOM_COUNT>
0

> <PUBCHEM_COMPONENT_COUNT>
1

> <PUBCHEM_CACTVS_TAUTO_COUNT>
-1

> <PUBCHEM_COORDINATE_TYPE>
1
5
255

> <PUBCHEM_BONDANNOTATIONS>
13  15  8
13  16  8
15  18  8
16  19  8
18  20  8
19  20  8
2  3  8
2  8  8
3  10  8
4  17  8
4  8  8
5  14  8
5  17  8
8  9  8
9  10  8
9  14  8

$$$$
