49830540
  -OEChem-03202504152D

 41 45  0     0  0  0  0  0  0999 V2000
    8.0638   -4.6596    0.0000 O   0  0  0  0  0  0  0  0  0  0  0  0
    4.1671    2.1905    0.0000 O   0  0  0  0  0  0  0  0  0  0  0  0
    8.3368   -2.9044    0.0000 N   0  0  0  0  0  0  0  0  0  0  0  0
    5.9409    2.0956    0.0000 N   0  0  0  0  0  0  0  0  0  0  0  0
    4.9718    3.5844    0.0000 N   0  0  0  0  0  0  0  0  0  0  0  0
    6.8069   -2.4044    0.0000 C   0  0  0  0  0  0  0  0  0  0  0  0
    5.9409   -1.9044    0.0000 C   0  0  0  0  0  0  0  0  0  0  0  0
    7.7531   -2.0996    0.0000 C   0  0  0  0  0  0  0  0  0  0  0  0
    6.8069   -3.4044    0.0000 C   0  0  0  0  0  0  0  0  0  0  0  0
    5.9409   -0.9044    0.0000 C   0  0  0  0  0  0  0  0  0  0  0  0
    7.7531   -3.7091    0.0000 C   0  0  0  0  0  0  0  0  0  0  0  0
    5.0749   -2.4044    0.0000 C   0  0  0  0  0  0  0  0  0  0  0  0
    5.9409   -3.9044    0.0000 C   0  0  0  0  0  0  0  0  0  0  0  0
    5.0749   -3.4044    0.0000 C   0  0  0  0  0  0  0  0  0  0  0  0
    5.0749   -0.4044    0.0000 C   0  0  0  0  0  0  0  0  0  0  0  0
    6.8069   -0.4044    0.0000 C   0  0  0  0  0  0  0  0  0  0  0  0
    5.9409    1.0956    0.0000 C   0  0  0  0  0  0  0  0  0  0  0  0
    5.0749    0.5956    0.0000 C   0  0  0  0  0  0  0  0  0  0  0  0
    6.8069    0.5956    0.0000 C   0  0  0  0  0  0  0  0  0  0  0  0
    5.0749    2.5956    0.0000 C   0  0  0  0  0  0  0  0  0  0  0  0
    3.5000    2.9276    0.0000 C   0  0  0  0  0  0  0  0  0  0  0  0
    4.0000    3.7936    0.0000 C   0  0  0  0  0  0  0  0  0  0  0  0
    2.5000    2.9276    0.0000 C   0  0  0  0  0  0  0  0  0  0  0  0
    3.5000    4.6596    0.0000 C   0  0  0  0  0  0  0  0  0  0  0  0
    2.0000    3.7936    0.0000 C   0  0  0  0  0  0  0  0  0  0  0  0
    2.5000    4.6596    0.0000 C   0  0  0  0  0  0  0  0  0  0  0  0
    8.2905   -1.7904    0.0000 H   0  0  0  0  0  0  0  0  0  0  0  0
    7.5021   -1.5327    0.0000 H   0  0  0  0  0  0  0  0  0  0  0  0
    8.9568   -2.9044    0.0000 H   0  0  0  0  0  0  0  0  0  0  0  0
    4.5379   -2.0944    0.0000 H   0  0  0  0  0  0  0  0  0  0  0  0
    5.9409   -4.5244    0.0000 H   0  0  0  0  0  0  0  0  0  0  0  0
    4.5379   -3.7144    0.0000 H   0  0  0  0  0  0  0  0  0  0  0  0
    4.5379   -0.7144    0.0000 H   0  0  0  0  0  0  0  0  0  0  0  0
    7.3439   -0.7144    0.0000 H   0  0  0  0  0  0  0  0  0  0  0  0
    4.5379    0.9056    0.0000 H   0  0  0  0  0  0  0  0  0  0  0  0
    7.3439    0.9056    0.0000 H   0  0  0  0  0  0  0  0  0  0  0  0
    6.4778    2.4056    0.0000 H   0  0  0  0  0  0  0  0  0  0  0  0
    2.1900    2.3906    0.0000 H   0  0  0  0  0  0  0  0  0  0  0  0
    3.8100    5.1965    0.0000 H   0  0  0  0  0  0  0  0  0  0  0  0
    1.3800    3.7936    0.0000 H   0  0  0  0  0  0  0  0  0  0  0  0
    2.1900    5.1965    0.0000 H   0  0  0  0  0  0  0  0  0  0  0  0
  1 11  2  0  0  0  0
  2 20  1  0  0  0  0
  2 21  1  0  0  0  0
  3  8  1  0  0  0  0
  3 11  1  0  0  0  0
  3 29  1  0  0  0  0
  4 17  1  0  0  0  0
  4 20  1  0  0  0  0
  4 37  1  0  0  0  0
  5 20  2  0  0  0  0
  5 22  1  0  0  0  0
  6  7  2  0  0  0  0
  6  8  1  0  0  0  0
  6  9  1  0  0  0  0
  7 10  1  0  0  0  0
  7 12  1  0  0  0  0
  8 27  1  0  0  0  0
  8 28  1  0  0  0  0
  9 11  1  0  0  0  0
  9 13  2  0  0  0  0
 10 15  2  0  0  0  0
 10 16  1  0  0  0  0
 12 14  2  0  0  0  0
 12 30  1  0  0  0  0
 13 14  1  0  0  0  0
 13 31  1  0  0  0  0
 14 32  1  0  0  0  0
 15 18  1  0  0  0  0
 15 33  1  0  0  0  0
 16 19  2  0  0  0  0
 16 34  1  0  0  0  0
 17 18  2  0  0  0  0
 17 19  1  0  0  0  0
 18 35  1  0  0  0  0
 19 36  1  0  0  0  0
 21 22  1  0  0  0  0
 21 23  2  0  0  0  0
 22 24  2  0  0  0  0
 23 25  1  0  0  0  0
 23 38  1  0  0  0  0
 24 26  1  0  0  0  0
 24 39  1  0  0  0  0
 25 26  2  0  0  0  0
 25 40  1  0  0  0  0
 26 41  1  0  0  0  0
M  END
> <PUBCHEM_COMPOUND_CID>
49830540

> <PUBCHEM_COMPOUND_CANONICALIZED>
1

> <PUBCHEM_CACTVS_COMPLEXITY>
519

> <PUBCHEM_CACTVS_HBOND_ACCEPTOR>
4

> <PUBCHEM_CACTVS_HBOND_DONOR>
2

> <PUBCHEM_CACTVS_ROTATABLE_BOND>
3

> <PUBCHEM_CACTVS_SUBSKEYS>
AAADccB7MAAAAAAAAAAAAAAAAAAAAWLAAAAwYMAAAAAAAFgB9AAAHgAQAAAADAzBngQx1rLIFECoA6VydASCiCkvYiAJmKG/bNmOJrLEvbuNMShs1hPY6aecyMCOiAACAAAQEAAQAAQAACAgAAAAAAAAAA==

> <PUBCHEM_IUPAC_OPENEYE_NAME>
4-[4-(1,3-benzoxazol-2-ylamino)phenyl]isoindolin-1-one

> <PUBCHEM_IUPAC_CAS_NAME>
4-[4-(1,3-benzoxazol-2-ylamino)phenyl]-2,3-dihydroisoindol-1-one

> <PUBCHEM_IUPAC_NAME_MARKUP>
4-[4-(1,3-benzoxazol-2-ylamino)phenyl]-2,3-dihydroisoindol-1-one

> <PUBCHEM_IUPAC_NAME>
4-[4-(1,3-benzoxazol-2-ylamino)phenyl]-2,3-dihydroisoindol-1-one

> <PUBCHEM_IUPAC_SYSTEMATIC_NAME>
4-[4-(1,3-benzoxazol-2-ylamino)phenyl]-2,3-dihydroisoindol-1-one

> <PUBCHEM_IUPAC_TRADITIONAL_NAME>
4-[4-(1,3-benzoxazol-2-ylamino)phenyl]isoindolin-1-one

> <PUBCHEM_IUPAC_INCHI>
InChI=1S/C21H15N3O2/c25-20-16-5-3-4-15(17(16)12-22-20)13-8-10-14(11-9-13)23-21-24-18-6-1-2-7-19(18)26-21/h1-11H,12H2,(H,22,25)(H,23,24)

> <PUBCHEM_IUPAC_INCHIKEY>
FXQWJULRETZHHW-UHFFFAOYSA-N

> <PUBCHEM_XLOGP3_AA>
4.1

> <PUBCHEM_EXACT_MASS>
341.116426730

> <PUBCHEM_MOLECULAR_FORMULA>
C21H15N3O2

> <PUBCHEM_MOLECULAR_WEIGHT>
341.4

> <PUBCHEM_SMILES>
C1C2=C(C=CC=C2C(=O)N1)C3=CC=C(C=C3)NC4=NC5=CC=CC=C5O4

> <PUBCHEM_OPENEYE_CAN_SMILES>
C1C2=C(C=CC=C2C(=O)N1)C3=CC=C(C=C3)NC4=NC5=CC=CC=C5O4

> <PUBCHEM_OPENEYE_ISO_SMILES>
C1C2=C(C=CC=C2C(=O)N1)C3=CC=C(C=C3)NC4=NC5=CC=CC=C5O4

> <PUBCHEM_CACTVS_TPSA>
67.2

> <PUBCHEM_MONOISOTOPIC_WEIGHT>
341.116426730

> <PUBCHEM_TOTAL_CHARGE>
0

> <PUBCHEM_HEAVY_ATOM_COUNT>
26

> <PUBCHEM_ATOM_DEF_STEREO_COUNT>
0

> <PUBCHEM_ATOM_UDEF_STEREO_COUNT>
0

> <PUBCHEM_BOND_DEF_STEREO_COUNT>
0

> <PUBCHEM_BOND_UDEF_STEREO_COUNT>
0

> <PUBCHEM_ISOTOPIC_ATOM_COUNT>
0

> <PUBCHEM_COMPONENT_COUNT>
1

> <PUBCHEM_CACTVS_TAUTO_COUNT>
-1

> <PUBCHEM_COORDINATE_TYPE>
1
5
255

> <PUBCHEM_BONDANNOTATIONS>
10  15  8
10  16  8
12  14  8
13  14  8
15  18  8
16  19  8
17  18  8
17  19  8
2  20  8
2  21  8
21  22  8
21  23  8
22  24  8
23  25  8
24  26  8
25  26  8
5  20  8
5  22  8
6  7  8
6  9  8
7  12  8
9  13  8

$$$$
