135750268
  -OEChem-03192523332D

 35 37  0     0  0  0  0  0  0999 V2000
    5.9209    3.4893    0.0000 O   0  0  0  0  0  0  0  0  0  0  0  0
    4.6783   -1.9223    0.0000 N   0  0  0  0  0  0  0  0  0  0  0  0
    5.2619   -1.1176    0.0000 N   0  0  0  0  0  0  0  0  0  0  0  0
    2.8660   -2.1176    0.0000 N   0  0  0  0  0  0  0  0  0  0  0  0
    2.0000   -0.6176    0.0000 N   0  0  0  0  0  0  0  0  0  0  0  0
    2.8660    0.8824    0.0000 N   0  0  0  0  0  0  0  0  0  0  0  0
    4.9889   -2.8728    0.0000 C   0  0  0  0  0  0  0  0  0  0  0  0
    3.7320   -1.6176    0.0000 C   0  0  0  0  0  0  0  0  0  0  0  0
    3.7320   -0.6176    0.0000 C   0  0  0  0  0  0  0  0  0  0  0  0
    4.6783   -0.3128    0.0000 C   0  0  0  0  0  0  0  0  0  0  0  0
    5.9674   -3.0790    0.0000 C   0  0  0  0  0  0  0  0  0  0  0  0
    4.3211   -3.6171    0.0000 C   0  0  0  0  0  0  0  0  0  0  0  0
    4.9889    0.6377    0.0000 C   0  0  0  0  0  0  0  0  0  0  0  0
    2.8660   -0.1176    0.0000 C   0  0  0  0  0  0  0  0  0  0  0  0
    4.3211    1.3820    0.0000 C   0  0  0  0  0  0  0  0  0  0  0  0
    5.9674    0.8439    0.0000 C   0  0  0  0  0  0  0  0  0  0  0  0
    2.0000   -1.6176    0.0000 C   0  0  0  0  0  0  0  0  0  0  0  0
    4.6318    2.3325    0.0000 C   0  0  0  0  0  0  0  0  0  0  0  0
    6.2781    1.7944    0.0000 C   0  0  0  0  0  0  0  0  0  0  0  0
    5.6103    2.5387    0.0000 C   0  0  0  0  0  0  0  0  0  0  0  0
    5.1815   -3.4621    0.0000 H   0  0  0  0  0  0  0  0  0  0  0  0
    5.8396   -3.6857    0.0000 H   0  0  0  0  0  0  0  0  0  0  0  0
    6.5741   -3.2069    0.0000 H   0  0  0  0  0  0  0  0  0  0  0  0
    6.0953   -2.4724    0.0000 H   0  0  0  0  0  0  0  0  0  0  0  0
    3.8596   -3.2030    0.0000 H   0  0  0  0  0  0  0  0  0  0  0  0
    3.9070   -4.0786    0.0000 H   0  0  0  0  0  0  0  0  0  0  0  0
    4.7826   -4.0312    0.0000 H   0  0  0  0  0  0  0  0  0  0  0  0
    3.7144    1.2541    0.0000 H   0  0  0  0  0  0  0  0  0  0  0  0
    6.3815    0.3824    0.0000 H   0  0  0  0  0  0  0  0  0  0  0  0
    1.4631   -1.9276    0.0000 H   0  0  0  0  0  0  0  0  0  0  0  0
    4.2177    2.7940    0.0000 H   0  0  0  0  0  0  0  0  0  0  0  0
    6.8848    1.9223    0.0000 H   0  0  0  0  0  0  0  0  0  0  0  0
    2.3291    1.1924    0.0000 H   0  0  0  0  0  0  0  0  0  0  0  0
    3.4030    1.1924    0.0000 H   0  0  0  0  0  0  0  0  0  0  0  0
    6.5276    3.6171    0.0000 H   0  0  0  0  0  0  0  0  0  0  0  0
  1 20  1  0  0  0  0
  1 35  1  0  0  0  0
  2  3  1  0  0  0  0
  2  7  1  0  0  0  0
  2  8  1  0  0  0  0
  3 10  2  0  0  0  0
  4  8  2  0  0  0  0
  4 17  1  0  0  0  0
  5 14  1  0  0  0  0
  5 17  2  0  0  0  0
  6 14  1  0  0  0  0
  6 33  1  0  0  0  0
  6 34  1  0  0  0  0
  7 11  1  0  0  0  0
  7 12  1  0  0  0  0
  7 21  1  0  0  0  0
  8  9  1  0  0  0  0
  9 10  1  0  0  0  0
  9 14  2  0  0  0  0
 10 13  1  0  0  0  0
 11 22  1  0  0  0  0
 11 23  1  0  0  0  0
 11 24  1  0  0  0  0
 12 25  1  0  0  0  0
 12 26  1  0  0  0  0
 12 27  1  0  0  0  0
 13 15  2  0  0  0  0
 13 16  1  0  0  0  0
 15 18  1  0  0  0  0
 15 28  1  0  0  0  0
 16 19  2  0  0  0  0
 16 29  1  0  0  0  0
 17 30  1  0  0  0  0
 18 20  2  0  0  0  0
 18 31  1  0  0  0  0
 19 20  1  0  0  0  0
 19 32  1  0  0  0  0
M  END
> <PUBCHEM_COMPOUND_CID>
135750268

> <PUBCHEM_COMPOUND_CANONICALIZED>
1

> <PUBCHEM_CACTVS_COMPLEXITY>
332

> <PUBCHEM_CACTVS_HBOND_ACCEPTOR>
5

> <PUBCHEM_CACTVS_HBOND_DONOR>
2

> <PUBCHEM_CACTVS_ROTATABLE_BOND>
2

> <PUBCHEM_CACTVS_SUBSKEYS>
AAADccBzoAAAAAAAAAAAAAAAAAAAAWAAAAA8QAAAAAAAAFgB/AAAHgAYCAAADCzBnwQ3tt5IEgCiAyZjZACShCsxoKAd2CAuTJiILqLC2dOE9AhsyBPI2CeQ0OEOIAAAAAAAAABAAAAAAAAAAAAAAAAAAA==

> <PUBCHEM_IUPAC_OPENEYE_NAME>
4-(4-amino-1-isopropyl-pyrazolo[3,4-d]pyrimidin-3-yl)phenol

> <PUBCHEM_IUPAC_CAS_NAME>
4-(4-amino-1-propan-2-yl-3-pyrazolo[3,4-d]pyrimidinyl)phenol

> <PUBCHEM_IUPAC_NAME_MARKUP>
4-(4-amino-1-propan-2-ylpyrazolo[3,4-d]pyrimidin-3-yl)phenol

> <PUBCHEM_IUPAC_NAME>
4-(4-amino-1-propan-2-ylpyrazolo[3,4-d]pyrimidin-3-yl)phenol

> <PUBCHEM_IUPAC_SYSTEMATIC_NAME>
4-(4-azanyl-1-propan-2-yl-pyrazolo[3,4-d]pyrimidin-3-yl)phenol

> <PUBCHEM_IUPAC_TRADITIONAL_NAME>
4-(4-amino-1-isopropyl-pyrazolo[3,4-d]pyrimidin-3-yl)phenol

> <PUBCHEM_IUPAC_INCHI>
InChI=1S/C14H15N5O/c1-8(2)19-14-11(13(15)16-7-17-14)12(18-19)9-3-5-10(20)6-4-9/h3-8,20H,1-2H3,(H2,15,16,17)

> <PUBCHEM_IUPAC_INCHIKEY>
KLQFKOVDEHUNHU-UHFFFAOYSA-N

> <PUBCHEM_XLOGP3_AA>
1.8

> <PUBCHEM_EXACT_MASS>
269.12766012

> <PUBCHEM_MOLECULAR_FORMULA>
C14H15N5O

> <PUBCHEM_MOLECULAR_WEIGHT>
269.30

> <PUBCHEM_SMILES>
CC(C)N1C2=NC=NC(=C2C(=N1)C3=CC=C(C=C3)O)N

> <PUBCHEM_OPENEYE_CAN_SMILES>
CC(C)N1C2=NC=NC(=C2C(=N1)C3=CC=C(C=C3)O)N

> <PUBCHEM_OPENEYE_ISO_SMILES>
CC(C)N1C2=NC=NC(=C2C(=N1)C3=CC=C(C=C3)O)N

> <PUBCHEM_CACTVS_TPSA>
89.9

> <PUBCHEM_MONOISOTOPIC_WEIGHT>
269.12766012

> <PUBCHEM_TOTAL_CHARGE>
0

> <PUBCHEM_HEAVY_ATOM_COUNT>
20

> <PUBCHEM_ATOM_DEF_STEREO_COUNT>
0

> <PUBCHEM_ATOM_UDEF_STEREO_COUNT>
0

> <PUBCHEM_BOND_DEF_STEREO_COUNT>
0

> <PUBCHEM_BOND_UDEF_STEREO_COUNT>
0

> <PUBCHEM_ISOTOPIC_ATOM_COUNT>
0

> <PUBCHEM_COMPONENT_COUNT>
1

> <PUBCHEM_CACTVS_TAUTO_COUNT>
-1

> <PUBCHEM_COORDINATE_TYPE>
1
5
255

> <PUBCHEM_BONDANNOTATIONS>
13  15  8
13  16  8
15  18  8
16  19  8
18  20  8
19  20  8
2  3  8
2  8  8
3  10  8
4  17  8
4  8  8
5  14  8
5  17  8
8  9  8
9  10  8
9  14  8

$$$$
