49830689
  -OEChem-03202502132D

 39 41  0     0  0  0  0  0  0999 V2000
    8.8602    3.2673    0.0000 F   0  0  0  0  0  0  0  0  0  0  0  0
    9.8602    4.2673    0.0000 F   0  0  0  0  0  0  0  0  0  0  0  0
   10.8602    3.2673    0.0000 F   0  0  0  0  0  0  0  0  0  0  0  0
    2.0000   -4.2635    0.0000 F   0  0  0  0  0  0  0  0  0  0  0  0
    2.8602   -2.7602    0.0000 F   0  0  0  0  0  0  0  0  0  0  0  0
    3.7320   -4.2568    0.0000 O   0  0  0  0  0  0  0  0  0  0  0  0
    8.9942   -1.2327    0.0000 O   0  0  0  0  0  0  0  0  0  0  0  0
    7.2622   -1.2327    0.0000 N   0  0  0  0  0  0  0  0  0  0  0  0
    7.2622   -4.2327    0.0000 N   0  0  0  0  0  0  0  0  0  0  0  0
    8.1282    0.2673    0.0000 N   0  0  0  0  0  0  0  0  0  0  0  0
    8.9942    1.7673    0.0000 N   0  0  0  0  0  0  0  0  0  0  0  0
    6.3961   -2.7327    0.0000 C   0  0  0  0  0  0  0  0  0  0  0  0
    7.2622   -2.2327    0.0000 C   0  0  0  0  0  0  0  0  0  0  0  0
    6.3961   -3.7327    0.0000 C   0  0  0  0  0  0  0  0  0  0  0  0
    5.5022   -2.1980    0.0000 C   0  0  0  0  0  0  0  0  0  0  0  0
    5.5022   -4.2673    0.0000 C   0  0  0  0  0  0  0  0  0  0  0  0
    8.1282   -2.7327    0.0000 C   0  0  0  0  0  0  0  0  0  0  0  0
    4.5961   -3.7535    0.0000 C   0  0  0  0  0  0  0  0  0  0  0  0
    4.5961   -2.7118    0.0000 C   0  0  0  0  0  0  0  0  0  0  0  0
    8.1282   -3.7327    0.0000 C   0  0  0  0  0  0  0  0  0  0  0  0
    8.1282   -0.7327    0.0000 C   0  0  0  0  0  0  0  0  0  0  0  0
    8.9942    0.7673    0.0000 C   0  0  0  0  0  0  0  0  0  0  0  0
    9.8602    2.2673    0.0000 C   0  0  0  0  0  0  0  0  0  0  0  0
    9.8602    0.2673    0.0000 C   0  0  0  0  0  0  0  0  0  0  0  0
   10.7263    1.7673    0.0000 C   0  0  0  0  0  0  0  0  0  0  0  0
   10.7263    0.7673    0.0000 C   0  0  0  0  0  0  0  0  0  0  0  0
    9.8602    3.2673    0.0000 C   0  0  0  0  0  0  0  0  0  0  0  0
    2.8641   -3.7602    0.0000 C   0  0  0  0  0  0  0  0  0  0  0  0
    5.5094   -1.5780    0.0000 H   0  0  0  0  0  0  0  0  0  0  0  0
    5.5094   -4.8873    0.0000 H   0  0  0  0  0  0  0  0  0  0  0  0
    8.6651   -2.4227    0.0000 H   0  0  0  0  0  0  0  0  0  0  0  0
    6.7252   -0.9227    0.0000 H   0  0  0  0  0  0  0  0  0  0  0  0
    4.0604   -2.3998    0.0000 H   0  0  0  0  0  0  0  0  0  0  0  0
    8.6651   -4.0427    0.0000 H   0  0  0  0  0  0  0  0  0  0  0  0
    7.5912    0.5773    0.0000 H   0  0  0  0  0  0  0  0  0  0  0  0
    9.8602   -0.3527    0.0000 H   0  0  0  0  0  0  0  0  0  0  0  0
   11.2632    2.0773    0.0000 H   0  0  0  0  0  0  0  0  0  0  0  0
   11.2632    0.4573    0.0000 H   0  0  0  0  0  0  0  0  0  0  0  0
    3.3998   -3.4481    0.0000 H   0  0  0  0  0  0  0  0  0  0  0  0
  1 27  1  0  0  0  0
  2 27  1  0  0  0  0
  3 27  1  0  0  0  0
  4 28  1  0  0  0  0
  5 28  1  0  0  0  0
  6 18  1  0  0  0  0
  6 28  1  0  0  0  0
  7 21  2  0  0  0  0
  8 13  1  0  0  0  0
  8 21  1  0  0  0  0
  8 32  1  0  0  0  0
  9 14  2  0  0  0  0
  9 20  1  0  0  0  0
 10 21  1  0  0  0  0
 10 22  1  0  0  0  0
 10 35  1  0  0  0  0
 11 22  1  0  0  0  0
 11 23  2  0  0  0  0
 12 13  2  0  0  0  0
 12 14  1  0  0  0  0
 12 15  1  0  0  0  0
 13 17  1  0  0  0  0
 14 16  1  0  0  0  0
 15 19  2  0  0  0  0
 15 29  1  0  0  0  0
 16 18  2  0  0  0  0
 16 30  1  0  0  0  0
 17 20  2  0  0  0  0
 17 31  1  0  0  0  0
 18 19  1  0  0  0  0
 19 33  1  0  0  0  0
 20 34  1  0  0  0  0
 22 24  2  0  0  0  0
 23 25  1  0  0  0  0
 23 27  1  0  0  0  0
 24 26  1  0  0  0  0
 24 36  1  0  0  0  0
 25 26  2  0  0  0  0
 25 37  1  0  0  0  0
 26 38  1  0  0  0  0
 28 39  1  0  0  0  0
M  END
> <PUBCHEM_COMPOUND_CID>
49830689

> <PUBCHEM_COMPOUND_CANONICALIZED>
1

> <PUBCHEM_CACTVS_COMPLEXITY>
536

> <PUBCHEM_CACTVS_HBOND_ACCEPTOR>
9

> <PUBCHEM_CACTVS_HBOND_DONOR>
2

> <PUBCHEM_CACTVS_ROTATABLE_BOND>
4

> <PUBCHEM_CACTVS_SUBSKEYS>
AAADccB7scAAAAAAAAAAAAAAAAAAAAAAAAA8WIAAAAAAAACx/AAAHwAQAAAADAzBnhY99vLIFACoAzZndACCiCkxIiAJ2CA+bJiMJuLE8duENChu1RvI6CeQ0KMOIAAAAgACAABAAAAEAAQAAAAAAAAAAA==

> <PUBCHEM_IUPAC_OPENEYE_NAME>
1-[7-(difluoromethoxy)-4-quinolyl]-3-[6-(trifluoromethyl)-2-pyridyl]urea

> <PUBCHEM_IUPAC_CAS_NAME>
1-[7-(difluoromethoxy)-4-quinolinyl]-3-[6-(trifluoromethyl)-2-pyridinyl]urea

> <PUBCHEM_IUPAC_NAME_MARKUP>
1-[7-(difluoromethoxy)quinolin-4-yl]-3-[6-(trifluoromethyl)pyridin-2-yl]urea

> <PUBCHEM_IUPAC_NAME>
1-[7-(difluoromethoxy)quinolin-4-yl]-3-[6-(trifluoromethyl)pyridin-2-yl]urea

> <PUBCHEM_IUPAC_SYSTEMATIC_NAME>
1-[7-[bis(fluoranyl)methoxy]quinolin-4-yl]-3-[6-(trifluoromethyl)pyridin-2-yl]urea

> <PUBCHEM_IUPAC_TRADITIONAL_NAME>
1-[7-(difluoromethoxy)-4-quinolyl]-3-[6-(trifluoromethyl)-2-pyridyl]urea

> <PUBCHEM_IUPAC_INCHI>
InChI=1S/C17H11F5N4O2/c18-15(19)28-9-4-5-10-11(6-7-23-12(10)8-9)24-16(27)26-14-3-1-2-13(25-14)17(20,21)22/h1-8,15H,(H2,23,24,25,26,27)

> <PUBCHEM_IUPAC_INCHIKEY>
FPLAQCFCGCSDRB-UHFFFAOYSA-N

> <PUBCHEM_XLOGP3_AA>
3.9

> <PUBCHEM_EXACT_MASS>
398.08021642

> <PUBCHEM_MOLECULAR_FORMULA>
C17H11F5N4O2

> <PUBCHEM_MOLECULAR_WEIGHT>
398.29

> <PUBCHEM_SMILES>
C1=CC(=NC(=C1)NC(=O)NC2=C3C=CC(=CC3=NC=C2)OC(F)F)C(F)(F)F

> <PUBCHEM_OPENEYE_CAN_SMILES>
C1=CC(=NC(=C1)NC(=O)NC2=C3C=CC(=CC3=NC=C2)OC(F)F)C(F)(F)F

> <PUBCHEM_OPENEYE_ISO_SMILES>
C1=CC(=NC(=C1)NC(=O)NC2=C3C=CC(=CC3=NC=C2)OC(F)F)C(F)(F)F

> <PUBCHEM_CACTVS_TPSA>
76.1

> <PUBCHEM_MONOISOTOPIC_WEIGHT>
398.08021642

> <PUBCHEM_TOTAL_CHARGE>
0

> <PUBCHEM_HEAVY_ATOM_COUNT>
28

> <PUBCHEM_ATOM_DEF_STEREO_COUNT>
0

> <PUBCHEM_ATOM_UDEF_STEREO_COUNT>
0

> <PUBCHEM_BOND_DEF_STEREO_COUNT>
0

> <PUBCHEM_BOND_UDEF_STEREO_COUNT>
0

> <PUBCHEM_ISOTOPIC_ATOM_COUNT>
0

> <PUBCHEM_COMPONENT_COUNT>
1

> <PUBCHEM_CACTVS_TAUTO_COUNT>
-1

> <PUBCHEM_COORDINATE_TYPE>
1
5
255

> <PUBCHEM_BONDANNOTATIONS>
11  22  8
11  23  8
12  13  8
12  14  8
12  15  8
13  17  8
14  16  8
15  19  8
16  18  8
17  20  8
18  19  8
22  24  8
23  25  8
24  26  8
25  26  8
9  14  8
9  20  8

$$$$
