718180
  -OEChem-03202500192D

 28 30  0     0  0  0  0  0  0999 V2000
    4.6783    1.9621    0.0000 S   0  0  0  0  0  0  0  0  0  0  0  0
    7.8551   -1.4882    0.0000 S   0  0  0  0  0  0  0  0  0  0  0  0
    6.2619   -0.5747    0.0000 O   0  0  0  0  0  0  0  0  0  0  0  0
    6.2619    1.1574    0.0000 N   0  0  0  0  0  0  0  0  0  0  0  0
    4.6783    0.3526    0.0000 N   0  0  0  0  0  0  0  0  0  0  0  0
    7.7619    0.2913    0.0000 C   0  0  0  0  0  0  0  0  0  0  0  0
    3.7320    1.6574    0.0000 C   0  0  0  0  0  0  0  0  0  0  0  0
    3.7320    0.6574    0.0000 C   0  0  0  0  0  0  0  0  0  0  0  0
    5.2619    1.1574    0.0000 C   0  0  0  0  0  0  0  0  0  0  0  0
    8.2619   -0.5747    0.0000 C   0  0  0  0  0  0  0  0  0  0  0  0
    6.7619    0.2913    0.0000 C   0  0  0  0  0  0  0  0  0  0  0  0
    2.8660    2.1574    0.0000 C   0  0  0  0  0  0  0  0  0  0  0  0
    2.8660    0.1574    0.0000 C   0  0  0  0  0  0  0  0  0  0  0  0
    9.2564   -0.6792    0.0000 C   0  0  0  0  0  0  0  0  0  0  0  0
    2.0000    1.6574    0.0000 C   0  0  0  0  0  0  0  0  0  0  0  0
    2.0000    0.6574    0.0000 C   0  0  0  0  0  0  0  0  0  0  0  0
    9.4643   -1.6574    0.0000 C   0  0  0  0  0  0  0  0  0  0  0  0
    8.5983   -2.1574    0.0000 C   0  0  0  0  0  0  0  0  0  0  0  0
    8.3445    0.5034    0.0000 H   0  0  0  0  0  0  0  0  0  0  0  0
    7.6542    0.9019    0.0000 H   0  0  0  0  0  0  0  0  0  0  0  0
    6.5719    1.6943    0.0000 H   0  0  0  0  0  0  0  0  0  0  0  0
    2.8660    2.7774    0.0000 H   0  0  0  0  0  0  0  0  0  0  0  0
    2.8660   -0.4626    0.0000 H   0  0  0  0  0  0  0  0  0  0  0  0
    9.6713   -0.2185    0.0000 H   0  0  0  0  0  0  0  0  0  0  0  0
    1.4631    1.9674    0.0000 H   0  0  0  0  0  0  0  0  0  0  0  0
    1.4631    0.3474    0.0000 H   0  0  0  0  0  0  0  0  0  0  0  0
   10.0307   -1.9095    0.0000 H   0  0  0  0  0  0  0  0  0  0  0  0
    8.5335   -2.7740    0.0000 H   0  0  0  0  0  0  0  0  0  0  0  0
  1  7  1  0  0  0  0
  1  9  1  0  0  0  0
  2 10  1  0  0  0  0
  2 18  1  0  0  0  0
  3 11  2  0  0  0  0
  4  9  1  0  0  0  0
  4 11  1  0  0  0  0
  4 21  1  0  0  0  0
  5  8  1  0  0  0  0
  5  9  2  0  0  0  0
  6 10  1  0  0  0  0
  6 11  1  0  0  0  0
  6 19  1  0  0  0  0
  6 20  1  0  0  0  0
  7  8  1  0  0  0  0
  7 12  2  0  0  0  0
  8 13  2  0  0  0  0
 10 14  2  0  0  0  0
 12 15  1  0  0  0  0
 12 22  1  0  0  0  0
 13 16  1  0  0  0  0
 13 23  1  0  0  0  0
 14 17  1  0  0  0  0
 14 24  1  0  0  0  0
 15 16  2  0  0  0  0
 15 25  1  0  0  0  0
 16 26  1  0  0  0  0
 17 18  2  0  0  0  0
 17 27  1  0  0  0  0
 18 28  1  0  0  0  0
M  END
> <PUBCHEM_COMPOUND_CID>
718180

> <PUBCHEM_COMPOUND_CANONICALIZED>
1

> <PUBCHEM_CACTVS_COMPLEXITY>
313

> <PUBCHEM_CACTVS_HBOND_ACCEPTOR>
4

> <PUBCHEM_CACTVS_HBOND_DONOR>
1

> <PUBCHEM_CACTVS_ROTATABLE_BOND>
3

> <PUBCHEM_CACTVS_SUBSKEYS>
AAADccBzIABgAAAAAAAAAAAAAAAAAWJAAAAwAAAAAAAAAFgB/AAAHgQQAAAACAiF1gCx0bLIEAisASVydACD8KlhCjlJmD0wZJiIILLgnZGEIAhokQJoyCcYCAAAAAAAAAAAAQAAAAAAAAACAAAAAAAAAA==

> <PUBCHEM_IUPAC_OPENEYE_NAME>
N-(1,3-benzothiazol-2-yl)-2-(2-thienyl)acetamide

> <PUBCHEM_IUPAC_CAS_NAME>
N-(1,3-benzothiazol-2-yl)-2-thiophen-2-ylacetamide

> <PUBCHEM_IUPAC_NAME_MARKUP>
<I>N</I>-(1,3-benzothiazol-2-yl)-2-thiophen-2-ylacetamide

> <PUBCHEM_IUPAC_NAME>
N-(1,3-benzothiazol-2-yl)-2-thiophen-2-ylacetamide

> <PUBCHEM_IUPAC_SYSTEMATIC_NAME>
N-(1,3-benzothiazol-2-yl)-2-thiophen-2-yl-ethanamide

> <PUBCHEM_IUPAC_TRADITIONAL_NAME>
N-(1,3-benzothiazol-2-yl)-2-(2-thienyl)acetamide

> <PUBCHEM_IUPAC_INCHI>
InChI=1S/C13H10N2OS2/c16-12(8-9-4-3-7-17-9)15-13-14-10-5-1-2-6-11(10)18-13/h1-7H,8H2,(H,14,15,16)

> <PUBCHEM_IUPAC_INCHIKEY>
QNJUFBLXCPQTHI-UHFFFAOYSA-N

> <PUBCHEM_XLOGP3_AA>
3.2

> <PUBCHEM_EXACT_MASS>
274.02345529

> <PUBCHEM_MOLECULAR_FORMULA>
C13H10N2OS2

> <PUBCHEM_MOLECULAR_WEIGHT>
274.4

> <PUBCHEM_SMILES>
C1=CC=C2C(=C1)N=C(S2)NC(=O)CC3=CC=CS3

> <PUBCHEM_OPENEYE_CAN_SMILES>
C1=CC=C2C(=C1)N=C(S2)NC(=O)CC3=CC=CS3

> <PUBCHEM_OPENEYE_ISO_SMILES>
C1=CC=C2C(=C1)N=C(S2)NC(=O)CC3=CC=CS3

> <PUBCHEM_CACTVS_TPSA>
98.5

> <PUBCHEM_MONOISOTOPIC_WEIGHT>
274.02345529

> <PUBCHEM_TOTAL_CHARGE>
0

> <PUBCHEM_HEAVY_ATOM_COUNT>
18

> <PUBCHEM_ATOM_DEF_STEREO_COUNT>
0

> <PUBCHEM_ATOM_UDEF_STEREO_COUNT>
0

> <PUBCHEM_BOND_DEF_STEREO_COUNT>
0

> <PUBCHEM_BOND_UDEF_STEREO_COUNT>
0

> <PUBCHEM_ISOTOPIC_ATOM_COUNT>
0

> <PUBCHEM_COMPONENT_COUNT>
1

> <PUBCHEM_CACTVS_TAUTO_COUNT>
-1

> <PUBCHEM_COORDINATE_TYPE>
1
5
255

> <PUBCHEM_BONDANNOTATIONS>
1  7  8
1  9  8
10  14  8
12  15  8
13  16  8
14  17  8
15  16  8
17  18  8
2  10  8
2  18  8
5  8  8
5  9  8
7  12  8
7  8  8
8  13  8

$$$$
