44352790
  -OEChem-03202506192D

 75 82  0     1  0  0  0  0  0999 V2000
    7.5253    2.3172    0.0000 O   0  0  0  0  0  0  0  0  0  0  0  0
    9.3271   -1.4246    0.0000 O   0  0  0  0  0  0  0  0  0  0  0  0
   11.7250    0.6516    0.0000 O   0  0  0  0  0  0  0  0  0  0  0  0
    3.4737   -2.7437    0.0000 O   0  0  0  0  0  0  0  0  0  0  0  0
    2.2501    0.6180    0.0000 O   0  0  0  0  0  0  0  0  0  0  0  0
   12.9497   -0.5731    0.0000 O   0  0  0  0  0  0  0  0  0  0  0  0
    6.9273   -0.6474    0.0000 N   0  0  0  0  0  0  0  0  0  0  0  0
    6.2433    1.2320    0.0000 N   0  0  0  0  0  0  0  0  0  0  0  0
   11.0179   -0.0555    0.0000 N   0  0  3  0  0  0  0  0  0  0  0  0
    2.5826   -1.1645    0.0000 N   0  0  0  0  0  0  0  0  0  0  0  0
    8.0031    0.3687    0.0000 C   0  0  1  0  0  0  0  0  0  0  0  0
    9.2748   -0.4260    0.0000 C   0  0  2  0  0  0  0  0  0  0  0  0
    8.2619    1.3346    0.0000 C   0  0  2  0  0  0  0  0  0  0  0  0
   10.0519    0.2034    0.0000 C   0  0  2  0  0  0  0  0  0  0  0  0
    9.6936    1.1369    0.0000 C   0  0  0  0  0  0  0  0  0  0  0  0
    5.9425   -0.4737    0.0000 C   0  0  0  0  0  0  0  0  0  0  0  0
    5.6005    0.4660    0.0000 C   0  0  0  0  0  0  0  0  0  0  0  0
    5.2853   -1.2819    0.0000 C   0  0  0  0  0  0  0  0  0  0  0  0
    7.7443   -0.5972    0.0000 C   0  0  0  0  0  0  0  0  0  0  0  0
    4.5776    0.6626    0.0000 C   0  0  0  0  0  0  0  0  0  0  0  0
    6.9003   -1.6408    0.0000 C   0  0  0  0  0  0  0  0  0  0  0  0
    5.5840    1.9757    0.0000 C   0  0  0  0  0  0  0  0  0  0  0  0
    5.9733   -1.9990    0.0000 C   0  0  0  0  0  0  0  0  0  0  0  0
    4.6436    1.6543    0.0000 C   0  0  0  0  0  0  0  0  0  0  0  0
    4.2582   -1.1089    0.0000 C   0  0  0  0  0  0  0  0  0  0  0  0
    3.9019   -0.1301    0.0000 C   0  0  0  0  0  0  0  0  0  0  0  0
    7.7162   -2.2780    0.0000 C   0  0  0  0  0  0  0  0  0  0  0  0
    5.7995    2.9882    0.0000 C   0  0  0  0  0  0  0  0  0  0  0  0
    5.7979   -3.0193    0.0000 C   0  0  0  0  0  0  0  0  0  0  0  0
    3.4406   -1.7443    0.0000 C   0  0  0  0  0  0  0  0  0  0  0  0
    2.8672   -0.1689    0.0000 C   0  0  0  0  0  0  0  0  0  0  0  0
   11.2767   -1.0214    0.0000 C   0  0  0  0  0  0  0  0  0  0  0  0
    3.8535    2.3231    0.0000 C   0  0  0  0  0  0  0  0  0  0  0  0
   10.2181   -1.8786    0.0000 C   0  0  0  0  0  0  0  0  0  0  0  0
    7.5644   -3.3020    0.0000 C   0  0  0  0  0  0  0  0  0  0  0  0
    6.5988   -3.6751    0.0000 C   0  0  0  0  0  0  0  0  0  0  0  0
    5.0250    3.6751    0.0000 C   0  0  0  0  0  0  0  0  0  0  0  0
    4.0454    3.3403    0.0000 C   0  0  0  0  0  0  0  0  0  0  0  0
   12.6909    0.3928    0.0000 C   0  0  0  0  0  0  0  0  0  0  0  0
   13.3980    1.0999    0.0000 C   0  0  0  0  0  0  0  0  0  0  0  0
   14.1051    1.8070    0.0000 C   0  0  0  0  0  0  0  0  0  0  0  0
   14.1051    0.3928    0.0000 C   0  0  0  0  0  0  0  0  0  0  0  0
   12.6909    1.8070    0.0000 C   0  0  0  0  0  0  0  0  0  0  0  0
    9.8412   -0.6781    0.0000 H   0  0  0  0  0  0  0  0  0  0  0  0
    8.4819    2.1556    0.0000 H   0  0  0  0  0  0  0  0  0  0  0  0
   10.4668    0.6641    0.0000 H   0  0  0  0  0  0  0  0  0  0  0  0
   10.3014    1.2593    0.0000 H   0  0  0  0  0  0  0  0  0  0  0  0
    9.6745    1.7566    0.0000 H   0  0  0  0  0  0  0  0  0  0  0  0
    7.1454   -0.4368    0.0000 H   0  0  0  0  0  0  0  0  0  0  0  0
    7.5838   -1.1961    0.0000 H   0  0  0  0  0  0  0  0  0  0  0  0
    8.3432   -0.7577    0.0000 H   0  0  0  0  0  0  0  0  0  0  0  0
    8.2919   -2.0478    0.0000 H   0  0  0  0  0  0  0  0  0  0  0  0
    6.3884    3.1820    0.0000 H   0  0  0  0  0  0  0  0  0  0  0  0
    5.2171   -3.2360    0.0000 H   0  0  0  0  0  0  0  0  0  0  0  0
   10.6778   -1.1818    0.0000 H   0  0  0  0  0  0  0  0  0  0  0  0
   11.4371   -1.6203    0.0000 H   0  0  0  0  0  0  0  0  0  0  0  0
   11.8755   -0.8609    0.0000 H   0  0  0  0  0  0  0  0  0  0  0  0
    3.2692    2.1157    0.0000 H   0  0  0  0  0  0  0  0  0  0  0  0
    9.9366   -2.4310    0.0000 H   0  0  0  0  0  0  0  0  0  0  0  0
   10.7705   -2.1600    0.0000 H   0  0  0  0  0  0  0  0  0  0  0  0
   10.4996   -1.3262    0.0000 H   0  0  0  0  0  0  0  0  0  0  0  0
    2.0000   -1.3766    0.0000 H   0  0  0  0  0  0  0  0  0  0  0  0
    8.0486   -3.6892    0.0000 H   0  0  0  0  0  0  0  0  0  0  0  0
    6.5009   -4.2873    0.0000 H   0  0  0  0  0  0  0  0  0  0  0  0
    5.1470    4.2830    0.0000 H   0  0  0  0  0  0  0  0  0  0  0  0
    3.5769    3.7463    0.0000 H   0  0  0  0  0  0  0  0  0  0  0  0
   14.5435    1.3686    0.0000 H   0  0  0  0  0  0  0  0  0  0  0  0
   14.5435    2.2454    0.0000 H   0  0  0  0  0  0  0  0  0  0  0  0
   13.6667    2.2454    0.0000 H   0  0  0  0  0  0  0  0  0  0  0  0
   13.6667   -0.0456    0.0000 H   0  0  0  0  0  0  0  0  0  0  0  0
   14.5435   -0.0456    0.0000 H   0  0  0  0  0  0  0  0  0  0  0  0
   14.5435    0.8312    0.0000 H   0  0  0  0  0  0  0  0  0  0  0  0
   13.1293    2.2454    0.0000 H   0  0  0  0  0  0  0  0  0  0  0  0
   12.2525    2.2454    0.0000 H   0  0  0  0  0  0  0  0  0  0  0  0
   12.2525    1.3686    0.0000 H   0  0  0  0  0  0  0  0  0  0  0  0
  1 11  1  0  0  0  0
  1 13  1  0  0  0  0
 12  2  1  6  0  0  0
  2 34  1  0  0  0  0
  3  9  1  0  0  0  0
  3 39  1  0  0  0  0
  4 30  2  0  0  0  0
  5 31  2  0  0  0  0
  6 39  2  0  0  0  0
  7 11  1  0  0  0  0
  7 16  1  0  0  0  0
  7 21  1  0  0  0  0
  8 13  1  0  0  0  0
  8 17  1  0  0  0  0
  8 22  1  0  0  0  0
 14  9  1  6  0  0  0
  9 32  1  0  0  0  0
 10 30  1  0  0  0  0
 10 31  1  0  0  0  0
 10 62  1  0  0  0  0
 11 12  1  0  0  0  0
 11 19  1  1  0  0  0
 12 14  1  0  0  0  0
 12 44  1  0  0  0  0
 13 15  1  0  0  0  0
 13 45  1  6  0  0  0
 14 15  1  0  0  0  0
 14 46  1  0  0  0  0
 15 47  1  0  0  0  0
 15 48  1  0  0  0  0
 16 17  2  0  0  0  0
 16 18  1  0  0  0  0
 17 20  1  0  0  0  0
 18 23  1  0  0  0  0
 18 25  2  0  0  0  0
 19 49  1  0  0  0  0
 19 50  1  0  0  0  0
 19 51  1  0  0  0  0
 20 24  1  0  0  0  0
 20 26  2  0  0  0  0
 21 23  1  0  0  0  0
 21 27  2  0  0  0  0
 22 24  1  0  0  0  0
 22 28  2  0  0  0  0
 23 29  2  0  0  0  0
 24 33  2  0  0  0  0
 25 26  1  0  0  0  0
 25 30  1  0  0  0  0
 26 31  1  0  0  0  0
 27 35  1  0  0  0  0
 27 52  1  0  0  0  0
 28 37  1  0  0  0  0
 28 53  1  0  0  0  0
 29 36  1  0  0  0  0
 29 54  1  0  0  0  0
 32 55  1  0  0  0  0
 32 56  1  0  0  0  0
 32 57  1  0  0  0  0
 33 38  1  0  0  0  0
 33 58  1  0  0  0  0
 34 59  1  0  0  0  0
 34 60  1  0  0  0  0
 34 61  1  0  0  0  0
 35 36  2  0  0  0  0
 35 63  1  0  0  0  0
 36 64  1  0  0  0  0
 37 38  2  0  0  0  0
 37 65  1  0  0  0  0
 38 66  1  0  0  0  0
 39 40  1  0  0  0  0
 40 41  1  0  0  0  0
 40 42  1  0  0  0  0
 40 43  1  0  0  0  0
 41 67  1  0  0  0  0
 41 68  1  0  0  0  0
 41 69  1  0  0  0  0
 42 70  1  0  0  0  0
 42 71  1  0  0  0  0
 42 72  1  0  0  0  0
 43 73  1  0  0  0  0
 43 74  1  0  0  0  0
 43 75  1  0  0  0  0
M  END
> <PUBCHEM_COMPOUND_CID>
44352790

> <PUBCHEM_COMPOUND_CANONICALIZED>
1

> <PUBCHEM_CACTVS_COMPLEXITY>
1210

> <PUBCHEM_CACTVS_HBOND_ACCEPTOR>
7

> <PUBCHEM_CACTVS_HBOND_DONOR>
1

> <PUBCHEM_CACTVS_ROTATABLE_BOND>
5

> <PUBCHEM_CACTVS_SUBSKEYS>
AAADcfB/uAAAAAAAAAAAAAAAAAAAAWLFgAA0YMEABYAAAFix/gAAHgAUAAAADjzhngYyyPPcFACoAyXyXACCgCQlEiAo2CE4dNgLYPLA1ZGfIQhmhCDayQf92cOeyAACQAASACCQAASAACQAQAAAAAAAAA==

> <PUBCHEM_IUPAC_OPENEYE_NAME>
[[(2R,3S,4S,6S)-3-methoxy-2-methyl-16,18-dioxo-29-oxa-1,7,17-triazaoctacyclo[12.12.2.12,6.07,28.08,13.015,19.020,27.021,26]nonacosa-8,10,12,14,19,21,23,25,27-nonaen-4-yl]-methyl-amino] 2,2-dimethylpropanoate

> <PUBCHEM_IUPAC_CAS_NAME>
2,2-dimethylpropanoic acid [[(2R,3S,4S,6S)-3-methoxy-2-methyl-16,18-dioxo-29-oxa-1,7,17-triazaoctacyclo[12.12.2.12,6.07,28.08,13.015,19.020,27.021,26]nonacosa-8,10,12,14,19,21,23,25,27-nonaen-4-yl]-methylamino] ester

> <PUBCHEM_IUPAC_NAME_MARKUP>
[[(2<I>R</I>,3<I>S</I>,4<I>S</I>,6<I>S</I>)-3-methoxy-2-methyl-16,18-dioxo-29-oxa-1,7,17-triazaoctacyclo[12.12.2.1<SUP>2,6</SUP>.0<SUP>7,28</SUP>.0<SUP>8,13</SUP>.0<SUP>15,19</SUP>.0<SUP>20,27</SUP>.0<SUP>21,26</SUP>]nonacosa-8,10,12,14,19,21,23,25,27-nonaen-4-yl]-methylamino] 2,2-dimethylpropanoate

> <PUBCHEM_IUPAC_NAME>
[[(2R,3S,4S,6S)-3-methoxy-2-methyl-16,18-dioxo-29-oxa-1,7,17-triazaoctacyclo[12.12.2.12,6.07,28.08,13.015,19.020,27.021,26]nonacosa-8,10,12,14,19,21,23,25,27-nonaen-4-yl]-methylamino] 2,2-dimethylpropanoate

> <PUBCHEM_IUPAC_SYSTEMATIC_NAME>
[[(2R,3S,4S,6S)-3-methoxy-2-methyl-16,18-bis(oxidanylidene)-29-oxa-1,7,17-triazaoctacyclo[12.12.2.12,6.07,28.08,13.015,19.020,27.021,26]nonacosa-8,10,12,14,19,21,23,25,27-nonaen-4-yl]-methyl-amino] 2,2-dimethylpropanoate

> <PUBCHEM_IUPAC_TRADITIONAL_NAME>
2,2-dimethylpropionic acid [[(2R,3S,4S,6S)-16,18-diketo-3-methoxy-2-methyl-29-oxa-1,7,17-triazaoctacyclo[12.12.2.12,6.07,28.08,13.015,19.020,27.021,26]nonacosa-8,10,12,14,19,21,23,25,27-nonaen-4-yl]-methyl-amino] ester

> <PUBCHEM_IUPAC_INCHI>
InChI=1S/C33H32N4O6/c1-32(2,3)31(40)43-35(5)20-15-21-36-18-13-9-7-11-16(18)22-24-25(30(39)34-29(24)38)23-17-12-8-10-14-19(17)37(27(23)26(22)36)33(4,42-21)28(20)41-6/h7-14,20-21,28H,15H2,1-6H3,(H,34,38,39)/t20-,21-,28-,33+/m0/s1

> <PUBCHEM_IUPAC_INCHIKEY>
ZLCCIRZPNQBHKE-ZDXWHTAPSA-N

> <PUBCHEM_XLOGP3_AA>
5.1

> <PUBCHEM_EXACT_MASS>
580.23218475

> <PUBCHEM_MOLECULAR_FORMULA>
C33H32N4O6

> <PUBCHEM_MOLECULAR_WEIGHT>
580.6

> <PUBCHEM_SMILES>
C[C@]12[C@H]([C@H](C[C@H](O1)N3C4=CC=CC=C4C5=C6C(=C7C8=CC=CC=C8N2C7=C53)C(=O)NC6=O)N(C)OC(=O)C(C)(C)C)OC

> <PUBCHEM_OPENEYE_CAN_SMILES>
CC12C(C(CC(O1)N3C4=CC=CC=C4C5=C6C(=C7C8=CC=CC=C8N2C7=C53)C(=O)NC6=O)N(C)OC(=O)C(C)(C)C)OC

> <PUBCHEM_OPENEYE_ISO_SMILES>
C[C@]12[C@H]([C@H](C[C@H](O1)N3C4=CC=CC=C4C5=C6C(=C7C8=CC=CC=C8N2C7=C53)C(=O)NC6=O)N(C)OC(=O)C(C)(C)C)OC

> <PUBCHEM_CACTVS_TPSA>
104

> <PUBCHEM_MONOISOTOPIC_WEIGHT>
580.23218475

> <PUBCHEM_TOTAL_CHARGE>
0

> <PUBCHEM_HEAVY_ATOM_COUNT>
43

> <PUBCHEM_ATOM_DEF_STEREO_COUNT>
4

> <PUBCHEM_ATOM_UDEF_STEREO_COUNT>
0

> <PUBCHEM_BOND_DEF_STEREO_COUNT>
0

> <PUBCHEM_BOND_UDEF_STEREO_COUNT>
0

> <PUBCHEM_ISOTOPIC_ATOM_COUNT>
0

> <PUBCHEM_COMPONENT_COUNT>
1

> <PUBCHEM_CACTVS_TAUTO_COUNT>
-1

> <PUBCHEM_COORDINATE_TYPE>
1
5
255

> <PUBCHEM_BONDANNOTATIONS>
11  19  5
13  45  6
16  17  8
16  18  8
17  20  8
18  23  8
18  25  8
12  2  6
20  24  8
20  26  8
21  23  8
21  27  8
22  24  8
22  28  8
23  29  8
24  33  8
25  26  8
27  35  8
28  37  8
29  36  8
33  38  8
35  36  8
37  38  8
7  16  8
7  21  8
8  17  8
8  22  8
14  9  6

$$$$
