24809769
  -OEChem-03202500462D

 40 42  0     0  0  0  0  0  0999 V2000
    6.6381   -1.9422    0.0000 O   0  0  0  0  0  0  0  0  0  0  0  0
    3.8611   -0.6550    0.0000 N   0  0  0  0  0  0  0  0  0  0  0  0
    3.9890    2.0186    0.0000 N   0  0  0  0  0  0  0  0  0  0  0  0
    7.1733   -0.2949    0.0000 N   0  0  0  0  0  0  0  0  0  0  0  0
    2.4067    2.7231    0.0000 N   0  0  0  0  0  0  0  0  0  0  0  0
    3.8080    3.7412    0.0000 N   0  0  0  0  0  0  0  0  0  0  0  0
    4.6701   -1.2428    0.0000 C   0  0  0  0  0  0  0  0  0  0  0  0
    4.6701   -2.2428    0.0000 C   0  0  0  0  0  0  0  0  0  0  0  0
    3.8041   -2.7428    0.0000 C   0  0  0  0  0  0  0  0  0  0  0  0
    5.4791   -0.6550    0.0000 C   0  0  0  0  0  0  0  0  0  0  0  0
    4.1701    0.2961    0.0000 C   0  0  0  0  0  0  0  0  0  0  0  0
    5.1701    0.2961    0.0000 C   0  0  0  0  0  0  0  0  0  0  0  0
    3.8041   -3.7428    0.0000 C   0  0  0  0  0  0  0  0  0  0  0  0
    5.5361   -2.7428    0.0000 C   0  0  0  0  0  0  0  0  0  0  0  0
    2.9380   -2.2428    0.0000 C   0  0  0  0  0  0  0  0  0  0  0  0
    3.5823    1.1051    0.0000 C   0  0  0  0  0  0  0  0  0  0  0  0
    4.6701   -4.2428    0.0000 C   0  0  0  0  0  0  0  0  0  0  0  0
    5.5361   -3.7428    0.0000 C   0  0  0  0  0  0  0  0  0  0  0  0
    6.4302   -0.9640    0.0000 C   0  0  0  0  0  0  0  0  0  0  0  0
    2.9380   -4.2428    0.0000 C   0  0  0  0  0  0  0  0  0  0  0  0
    2.5878    1.0006    0.0000 C   0  0  0  0  0  0  0  0  0  0  0  0
    2.0000    1.8096    0.0000 C   0  0  0  0  0  0  0  0  0  0  0  0
    3.4013    2.8276    0.0000 C   0  0  0  0  0  0  0  0  0  0  0  0
    3.2714   -0.8466    0.0000 H   0  0  0  0  0  0  0  0  0  0  0  0
    5.5345    0.7977    0.0000 H   0  0  0  0  0  0  0  0  0  0  0  0
    6.0730   -2.4328    0.0000 H   0  0  0  0  0  0  0  0  0  0  0  0
    3.2480   -1.7058    0.0000 H   0  0  0  0  0  0  0  0  0  0  0  0
    2.4011   -1.9328    0.0000 H   0  0  0  0  0  0  0  0  0  0  0  0
    2.6280   -2.7797    0.0000 H   0  0  0  0  0  0  0  0  0  0  0  0
    4.6701   -4.8628    0.0000 H   0  0  0  0  0  0  0  0  0  0  0  0
    6.0730   -4.0528    0.0000 H   0  0  0  0  0  0  0  0  0  0  0  0
    2.6280   -3.7058    0.0000 H   0  0  0  0  0  0  0  0  0  0  0  0
    2.4011   -4.5528    0.0000 H   0  0  0  0  0  0  0  0  0  0  0  0
    3.2480   -4.7797    0.0000 H   0  0  0  0  0  0  0  0  0  0  0  0
    2.3356    0.4342    0.0000 H   0  0  0  0  0  0  0  0  0  0  0  0
    7.7630   -0.4865    0.0000 H   0  0  0  0  0  0  0  0  0  0  0  0
    7.0444    0.3116    0.0000 H   0  0  0  0  0  0  0  0  0  0  0  0
    1.3834    1.7448    0.0000 H   0  0  0  0  0  0  0  0  0  0  0  0
    3.4436    4.2428    0.0000 H   0  0  0  0  0  0  0  0  0  0  0  0
    4.4246    3.8060    0.0000 H   0  0  0  0  0  0  0  0  0  0  0  0
  1 19  2  0  0  0  0
  2  7  1  0  0  0  0
  2 11  1  0  0  0  0
  2 24  1  0  0  0  0
  3 16  2  0  0  0  0
  3 23  1  0  0  0  0
  4 19  1  0  0  0  0
  4 36  1  0  0  0  0
  4 37  1  0  0  0  0
  5 22  1  0  0  0  0
  5 23  2  0  0  0  0
  6 23  1  0  0  0  0
  6 39  1  0  0  0  0
  6 40  1  0  0  0  0
  7  8  1  0  0  0  0
  7 10  2  0  0  0  0
  8  9  1  0  0  0  0
  8 14  2  0  0  0  0
  9 13  2  0  0  0  0
  9 15  1  0  0  0  0
 10 12  1  0  0  0  0
 10 19  1  0  0  0  0
 11 12  2  0  0  0  0
 11 16  1  0  0  0  0
 12 25  1  0  0  0  0
 13 17  1  0  0  0  0
 13 20  1  0  0  0  0
 14 18  1  0  0  0  0
 14 26  1  0  0  0  0
 15 27  1  0  0  0  0
 15 28  1  0  0  0  0
 15 29  1  0  0  0  0
 16 21  1  0  0  0  0
 17 18  2  0  0  0  0
 17 30  1  0  0  0  0
 18 31  1  0  0  0  0
 20 32  1  0  0  0  0
 20 33  1  0  0  0  0
 20 34  1  0  0  0  0
 21 22  2  0  0  0  0
 21 35  1  0  0  0  0
 22 38  1  0  0  0  0
M  END
> <PUBCHEM_COMPOUND_CID>
24809769

> <PUBCHEM_COMPOUND_CANONICALIZED>
1

> <PUBCHEM_CACTVS_COMPLEXITY>
431

> <PUBCHEM_CACTVS_HBOND_ACCEPTOR>
4

> <PUBCHEM_CACTVS_HBOND_DONOR>
3

> <PUBCHEM_CACTVS_ROTATABLE_BOND>
3

> <PUBCHEM_CACTVS_SUBSKEYS>
AAADceB7oAAAAAAAAAAAAAAAAAAAAWAAAAA8QAAAAAAAAAAB8AAAHgAQAAAADAjBngQ/kJbJkACoAzV3dACCgCk1AqAJ2SE4ZNiIaPrA3dGUJYhokALIyeccicCegAACAAAQAAAAAAQAACAAAAAAAAAAAA==

> <PUBCHEM_IUPAC_OPENEYE_NAME>
5-(2-aminopyrimidin-4-yl)-2-(2,3-dimethylphenyl)-1H-pyrrole-3-carboxamide

> <PUBCHEM_IUPAC_CAS_NAME>
5-(2-amino-4-pyrimidinyl)-2-(2,3-dimethylphenyl)-1H-pyrrole-3-carboxamide

> <PUBCHEM_IUPAC_NAME_MARKUP>
5-(2-aminopyrimidin-4-yl)-2-(2,3-dimethylphenyl)-1<I>H</I>-pyrrole-3-carboxamide

> <PUBCHEM_IUPAC_NAME>
5-(2-aminopyrimidin-4-yl)-2-(2,3-dimethylphenyl)-1H-pyrrole-3-carboxamide

> <PUBCHEM_IUPAC_SYSTEMATIC_NAME>
5-(2-azanylpyrimidin-4-yl)-2-(2,3-dimethylphenyl)-1H-pyrrole-3-carboxamide

> <PUBCHEM_IUPAC_TRADITIONAL_NAME>
5-(2-aminopyrimidin-4-yl)-2-(2,3-dimethylphenyl)-1H-pyrrole-3-carboxamide

> <PUBCHEM_IUPAC_INCHI>
InChI=1S/C17H17N5O/c1-9-4-3-5-11(10(9)2)15-12(16(18)23)8-14(21-15)13-6-7-20-17(19)22-13/h3-8,21H,1-2H3,(H2,18,23)(H2,19,20,22)

> <PUBCHEM_IUPAC_INCHIKEY>
JJJSCYSPSKBQAX-UHFFFAOYSA-N

> <PUBCHEM_XLOGP3_AA>
1.6

> <PUBCHEM_EXACT_MASS>
307.14331018

> <PUBCHEM_MOLECULAR_FORMULA>
C17H17N5O

> <PUBCHEM_MOLECULAR_WEIGHT>
307.35

> <PUBCHEM_SMILES>
CC1=C(C(=CC=C1)C2=C(C=C(N2)C3=NC(=NC=C3)N)C(=O)N)C

> <PUBCHEM_OPENEYE_CAN_SMILES>
CC1=C(C(=CC=C1)C2=C(C=C(N2)C3=NC(=NC=C3)N)C(=O)N)C

> <PUBCHEM_OPENEYE_ISO_SMILES>
CC1=C(C(=CC=C1)C2=C(C=C(N2)C3=NC(=NC=C3)N)C(=O)N)C

> <PUBCHEM_CACTVS_TPSA>
111

> <PUBCHEM_MONOISOTOPIC_WEIGHT>
307.14331018

> <PUBCHEM_TOTAL_CHARGE>
0

> <PUBCHEM_HEAVY_ATOM_COUNT>
23

> <PUBCHEM_ATOM_DEF_STEREO_COUNT>
0

> <PUBCHEM_ATOM_UDEF_STEREO_COUNT>
0

> <PUBCHEM_BOND_DEF_STEREO_COUNT>
0

> <PUBCHEM_BOND_UDEF_STEREO_COUNT>
0

> <PUBCHEM_ISOTOPIC_ATOM_COUNT>
0

> <PUBCHEM_COMPONENT_COUNT>
1

> <PUBCHEM_CACTVS_TAUTO_COUNT>
-1

> <PUBCHEM_COORDINATE_TYPE>
1
5
255

> <PUBCHEM_BONDANNOTATIONS>
10  12  8
11  12  8
13  17  8
14  18  8
16  21  8
17  18  8
2  11  8
2  7  8
21  22  8
3  16  8
3  23  8
5  22  8
5  23  8
7  10  8
8  14  8
8  9  8
9  13  8

$$$$
