49830697
  -OEChem-03202504292D

 40 42  0     0  0  0  0  0  0999 V2000
    9.8564    4.2673    0.0000 F   0  0  0  0  0  0  0  0  0  0  0  0
   10.8564    3.2673    0.0000 F   0  0  0  0  0  0  0  0  0  0  0  0
    8.8564    3.2673    0.0000 F   0  0  0  0  0  0  0  0  0  0  0  0
    8.9904   -1.2327    0.0000 O   0  0  0  0  0  0  0  0  0  0  0  0
    7.2583   -1.2327    0.0000 N   0  0  0  0  0  0  0  0  0  0  0  0
    7.2583   -4.2327    0.0000 N   0  0  0  0  0  0  0  0  0  0  0  0
    8.1243    0.2673    0.0000 N   0  0  0  0  0  0  0  0  0  0  0  0
    8.9904    1.7673    0.0000 N   0  0  0  0  0  0  0  0  0  0  0  0
    6.3923   -2.7327    0.0000 C   0  0  0  0  0  0  0  0  0  0  0  0
    7.2583   -2.2327    0.0000 C   0  0  0  0  0  0  0  0  0  0  0  0
    6.3923   -3.7327    0.0000 C   0  0  0  0  0  0  0  0  0  0  0  0
    5.4983   -2.1980    0.0000 C   0  0  0  0  0  0  0  0  0  0  0  0
    8.1243   -2.7327    0.0000 C   0  0  0  0  0  0  0  0  0  0  0  0
    5.4983   -4.2673    0.0000 C   0  0  0  0  0  0  0  0  0  0  0  0
    4.5923   -2.7118    0.0000 C   0  0  0  0  0  0  0  0  0  0  0  0
    4.5923   -3.7535    0.0000 C   0  0  0  0  0  0  0  0  0  0  0  0
    8.1243   -3.7327    0.0000 C   0  0  0  0  0  0  0  0  0  0  0  0
    8.1243   -0.7327    0.0000 C   0  0  0  0  0  0  0  0  0  0  0  0
    8.9904    0.7673    0.0000 C   0  0  0  0  0  0  0  0  0  0  0  0
    9.8564    2.2673    0.0000 C   0  0  0  0  0  0  0  0  0  0  0  0
    9.8564    0.2673    0.0000 C   0  0  0  0  0  0  0  0  0  0  0  0
   10.7224    1.7673    0.0000 C   0  0  0  0  0  0  0  0  0  0  0  0
   10.7224    0.7673    0.0000 C   0  0  0  0  0  0  0  0  0  0  0  0
    9.8564    3.2673    0.0000 C   0  0  0  0  0  0  0  0  0  0  0  0
    3.7282   -2.2085    0.0000 C   0  0  0  0  0  0  0  0  0  0  0  0
    2.8641   -1.7052    0.0000 C   0  0  0  0  0  0  0  0  0  0  0  0
    2.0000   -1.2018    0.0000 C   0  0  0  0  0  0  0  0  0  0  0  0
    5.5055   -1.5780    0.0000 H   0  0  0  0  0  0  0  0  0  0  0  0
    8.6613   -2.4227    0.0000 H   0  0  0  0  0  0  0  0  0  0  0  0
    5.5055   -4.8873    0.0000 H   0  0  0  0  0  0  0  0  0  0  0  0
    6.7214   -0.9227    0.0000 H   0  0  0  0  0  0  0  0  0  0  0  0
    4.0565   -4.0656    0.0000 H   0  0  0  0  0  0  0  0  0  0  0  0
    8.6613   -4.0427    0.0000 H   0  0  0  0  0  0  0  0  0  0  0  0
    7.5874    0.5773    0.0000 H   0  0  0  0  0  0  0  0  0  0  0  0
    9.8564   -0.3527    0.0000 H   0  0  0  0  0  0  0  0  0  0  0  0
   11.2593    2.0773    0.0000 H   0  0  0  0  0  0  0  0  0  0  0  0
   11.2593    0.4573    0.0000 H   0  0  0  0  0  0  0  0  0  0  0  0
    2.3121   -0.6661    0.0000 H   0  0  0  0  0  0  0  0  0  0  0  0
    1.4643   -0.8898    0.0000 H   0  0  0  0  0  0  0  0  0  0  0  0
    1.6879   -1.7376    0.0000 H   0  0  0  0  0  0  0  0  0  0  0  0
  1 24  1  0  0  0  0
  2 24  1  0  0  0  0
  3 24  1  0  0  0  0
  4 18  2  0  0  0  0
  5 10  1  0  0  0  0
  5 18  1  0  0  0  0
  5 31  1  0  0  0  0
  6 11  2  0  0  0  0
  6 17  1  0  0  0  0
  7 18  1  0  0  0  0
  7 19  1  0  0  0  0
  7 34  1  0  0  0  0
  8 19  1  0  0  0  0
  8 20  2  0  0  0  0
  9 10  2  0  0  0  0
  9 11  1  0  0  0  0
  9 12  1  0  0  0  0
 10 13  1  0  0  0  0
 11 14  1  0  0  0  0
 12 15  2  0  0  0  0
 12 28  1  0  0  0  0
 13 17  2  0  0  0  0
 13 29  1  0  0  0  0
 14 16  2  0  0  0  0
 14 30  1  0  0  0  0
 15 16  1  0  0  0  0
 15 25  1  0  0  0  0
 16 32  1  0  0  0  0
 17 33  1  0  0  0  0
 19 21  2  0  0  0  0
 20 22  1  0  0  0  0
 20 24  1  0  0  0  0
 21 23  1  0  0  0  0
 21 35  1  0  0  0  0
 22 23  2  0  0  0  0
 22 36  1  0  0  0  0
 23 37  1  0  0  0  0
 25 26  3  0  0  0  0
 26 27  1  0  0  0  0
 27 38  1  0  0  0  0
 27 39  1  0  0  0  0
 27 40  1  0  0  0  0
M  END
> <PUBCHEM_COMPOUND_CID>
49830697

> <PUBCHEM_COMPOUND_CANONICALIZED>
1

> <PUBCHEM_CACTVS_COMPLEXITY>
597

> <PUBCHEM_CACTVS_HBOND_ACCEPTOR>
6

> <PUBCHEM_CACTVS_HBOND_DONOR>
2

> <PUBCHEM_CACTVS_ROTATABLE_BOND>
3

> <PUBCHEM_CACTVS_SUBSKEYS>
AAADccB7oYAAAAAAAAAAAAAAAAAAAAAAAAA8WIAAAAAAAACx/AAAHwAQAAAADAjBHhQ/8PLIEADoEzZndAiCgCkxAiAJ2CA4ZJiIIOLA0dGEJAholQLIyCcQgMAOCAACAAACAAAQAAQAAAQAAAAAAAAAAA==

> <PUBCHEM_IUPAC_OPENEYE_NAME>
1-(6-prop-1-ynyl-4-quinolyl)-3-[6-(trifluoromethyl)-2-pyridyl]urea

> <PUBCHEM_IUPAC_CAS_NAME>
1-(6-prop-1-ynyl-4-quinolinyl)-3-[6-(trifluoromethyl)-2-pyridinyl]urea

> <PUBCHEM_IUPAC_NAME_MARKUP>
1-(6-prop-1-ynylquinolin-4-yl)-3-[6-(trifluoromethyl)pyridin-2-yl]urea

> <PUBCHEM_IUPAC_NAME>
1-(6-prop-1-ynylquinolin-4-yl)-3-[6-(trifluoromethyl)pyridin-2-yl]urea

> <PUBCHEM_IUPAC_SYSTEMATIC_NAME>
1-(6-prop-1-ynylquinolin-4-yl)-3-[6-(trifluoromethyl)pyridin-2-yl]urea

> <PUBCHEM_IUPAC_TRADITIONAL_NAME>
1-(6-prop-1-ynyl-4-quinolyl)-3-[6-(trifluoromethyl)-2-pyridyl]urea

> <PUBCHEM_IUPAC_INCHI>
InChI=1S/C19H13F3N4O/c1-2-4-12-7-8-14-13(11-12)15(9-10-23-14)24-18(27)26-17-6-3-5-16(25-17)19(20,21)22/h3,5-11H,1H3,(H2,23,24,25,26,27)

> <PUBCHEM_IUPAC_INCHIKEY>
JOZIXEURKWTTSA-UHFFFAOYSA-N

> <PUBCHEM_XLOGP3_AA>
3.7

> <PUBCHEM_EXACT_MASS>
370.10414554

> <PUBCHEM_MOLECULAR_FORMULA>
C19H13F3N4O

> <PUBCHEM_MOLECULAR_WEIGHT>
370.3

> <PUBCHEM_SMILES>
CC#CC1=CC2=C(C=CN=C2C=C1)NC(=O)NC3=CC=CC(=N3)C(F)(F)F

> <PUBCHEM_OPENEYE_CAN_SMILES>
CC#CC1=CC2=C(C=CN=C2C=C1)NC(=O)NC3=CC=CC(=N3)C(F)(F)F

> <PUBCHEM_OPENEYE_ISO_SMILES>
CC#CC1=CC2=C(C=CN=C2C=C1)NC(=O)NC3=CC=CC(=N3)C(F)(F)F

> <PUBCHEM_CACTVS_TPSA>
66.9

> <PUBCHEM_MONOISOTOPIC_WEIGHT>
370.10414554

> <PUBCHEM_TOTAL_CHARGE>
0

> <PUBCHEM_HEAVY_ATOM_COUNT>
27

> <PUBCHEM_ATOM_DEF_STEREO_COUNT>
0

> <PUBCHEM_ATOM_UDEF_STEREO_COUNT>
0

> <PUBCHEM_BOND_DEF_STEREO_COUNT>
0

> <PUBCHEM_BOND_UDEF_STEREO_COUNT>
0

> <PUBCHEM_ISOTOPIC_ATOM_COUNT>
0

> <PUBCHEM_COMPONENT_COUNT>
1

> <PUBCHEM_CACTVS_TAUTO_COUNT>
-1

> <PUBCHEM_COORDINATE_TYPE>
1
5
255

> <PUBCHEM_BONDANNOTATIONS>
10  13  8
11  14  8
12  15  8
13  17  8
14  16  8
15  16  8
19  21  8
20  22  8
21  23  8
22  23  8
6  11  8
6  17  8
8  19  8
8  20  8
9  10  8
9  11  8
9  12  8

$$$$
