18458840
  -OEChem-03202501292D

 46 48  0     1  0  0  0  0  0999 V2000
    5.3147    0.2500    0.0000 O   0  0  0  0  0  0  0  0  0  0  0  0
    2.6691   -0.1567    0.0000 N   0  0  3  0  0  0  0  0  0  0  0  0
    7.0468   -1.7500    0.0000 N   0  0  0  0  0  0  0  0  0  0  0  0
    3.5827    0.2500    0.0000 C   0  0  3  0  0  0  0  0  0  0  0  0
    3.4782    1.2445    0.0000 C   0  0  0  0  0  0  0  0  0  0  0  0
    2.5000    1.4524    0.0000 C   0  0  0  0  0  0  0  0  0  0  0  0
    2.0000    0.5864    0.0000 C   0  0  0  0  0  0  0  0  0  0  0  0
    4.4487   -0.2500    0.0000 C   0  0  0  0  0  0  0  0  0  0  0  0
    2.4612   -1.1349    0.0000 C   0  0  0  0  0  0  0  0  0  0  0  0
    6.1808   -0.2500    0.0000 C   0  0  0  0  0  0  0  0  0  0  0  0
    7.0468    0.2500    0.0000 C   0  0  0  0  0  0  0  0  0  0  0  0
    7.9128   -0.2500    0.0000 C   0  0  0  0  0  0  0  0  0  0  0  0
    8.7788    0.2500    0.0000 C   0  0  0  0  0  0  0  0  0  0  0  0
    9.6448   -0.2500    0.0000 C   0  0  0  0  0  0  0  0  0  0  0  0
    6.1808   -1.2500    0.0000 C   0  0  0  0  0  0  0  0  0  0  0  0
    7.9128   -1.2500    0.0000 C   0  0  0  0  0  0  0  0  0  0  0  0
   10.5109    0.2500    0.0000 C   0  0  0  0  0  0  0  0  0  0  0  0
   10.5109    1.2500    0.0000 C   0  0  0  0  0  0  0  0  0  0  0  0
   11.3769   -0.2500    0.0000 C   0  0  0  0  0  0  0  0  0  0  0  0
   11.3769    1.7500    0.0000 C   0  0  0  0  0  0  0  0  0  0  0  0
   12.2429    0.2500    0.0000 C   0  0  0  0  0  0  0  0  0  0  0  0
   12.2429    1.2500    0.0000 C   0  0  0  0  0  0  0  0  0  0  0  0
    3.5502   -0.3692    0.0000 H   0  0  0  0  0  0  0  0  0  0  0  0
    4.0982    1.2445    0.0000 H   0  0  0  0  0  0  0  0  0  0  0  0
    3.5430    1.8611    0.0000 H   0  0  0  0  0  0  0  0  0  0  0  0
    2.6916    2.0421    0.0000 H   0  0  0  0  0  0  0  0  0  0  0  0
    1.9336    1.7046    0.0000 H   0  0  0  0  0  0  0  0  0  0  0  0
    1.4984    0.9508    0.0000 H   0  0  0  0  0  0  0  0  0  0  0  0
    1.5851    0.1257    0.0000 H   0  0  0  0  0  0  0  0  0  0  0  0
    4.0502   -0.7249    0.0000 H   0  0  0  0  0  0  0  0  0  0  0  0
    4.8472   -0.7249    0.0000 H   0  0  0  0  0  0  0  0  0  0  0  0
    1.8548   -1.0060    0.0000 H   0  0  0  0  0  0  0  0  0  0  0  0
    2.3323   -1.7413    0.0000 H   0  0  0  0  0  0  0  0  0  0  0  0
    3.0677   -1.2638    0.0000 H   0  0  0  0  0  0  0  0  0  0  0  0
    7.0468    0.8700    0.0000 H   0  0  0  0  0  0  0  0  0  0  0  0
    9.1774    0.7249    0.0000 H   0  0  0  0  0  0  0  0  0  0  0  0
    8.3803    0.7249    0.0000 H   0  0  0  0  0  0  0  0  0  0  0  0
    9.2463   -0.7249    0.0000 H   0  0  0  0  0  0  0  0  0  0  0  0
   10.0434   -0.7249    0.0000 H   0  0  0  0  0  0  0  0  0  0  0  0
    5.6438   -1.5600    0.0000 H   0  0  0  0  0  0  0  0  0  0  0  0
    8.4497   -1.5600    0.0000 H   0  0  0  0  0  0  0  0  0  0  0  0
    9.9739    1.5600    0.0000 H   0  0  0  0  0  0  0  0  0  0  0  0
   11.3769   -0.8700    0.0000 H   0  0  0  0  0  0  0  0  0  0  0  0
   11.3769    2.3700    0.0000 H   0  0  0  0  0  0  0  0  0  0  0  0
   12.7799   -0.0600    0.0000 H   0  0  0  0  0  0  0  0  0  0  0  0
   12.7799    1.5600    0.0000 H   0  0  0  0  0  0  0  0  0  0  0  0
  1  8  1  0  0  0  0
  1 10  1  0  0  0  0
  2  4  1  0  0  0  0
  2  7  1  0  0  0  0
  2  9  1  0  0  0  0
  3 15  1  0  0  0  0
  3 16  2  0  0  0  0
  4  5  1  0  0  0  0
  4  8  1  0  0  0  0
  4 23  1  0  0  0  0
  5  6  1  0  0  0  0
  5 24  1  0  0  0  0
  5 25  1  0  0  0  0
  6  7  1  0  0  0  0
  6 26  1  0  0  0  0
  6 27  1  0  0  0  0
  7 28  1  0  0  0  0
  7 29  1  0  0  0  0
  8 30  1  0  0  0  0
  8 31  1  0  0  0  0
  9 32  1  0  0  0  0
  9 33  1  0  0  0  0
  9 34  1  0  0  0  0
 10 11  1  0  0  0  0
 10 15  2  0  0  0  0
 11 12  2  0  0  0  0
 11 35  1  0  0  0  0
 12 13  1  0  0  0  0
 12 16  1  0  0  0  0
 13 14  1  0  0  0  0
 13 36  1  0  0  0  0
 13 37  1  0  0  0  0
 14 17  1  0  0  0  0
 14 38  1  0  0  0  0
 14 39  1  0  0  0  0
 15 40  1  0  0  0  0
 16 41  1  0  0  0  0
 17 18  2  0  0  0  0
 17 19  1  0  0  0  0
 18 20  1  0  0  0  0
 18 42  1  0  0  0  0
 19 21  2  0  0  0  0
 19 43  1  0  0  0  0
 20 22  2  0  0  0  0
 20 44  1  0  0  0  0
 21 22  1  0  0  0  0
 21 45  1  0  0  0  0
 22 46  1  0  0  0  0
M  END
> <PUBCHEM_COMPOUND_CID>
18458840

> <PUBCHEM_COMPOUND_CANONICALIZED>
1

> <PUBCHEM_CACTVS_COMPLEXITY>
317

> <PUBCHEM_CACTVS_HBOND_ACCEPTOR>
3

> <PUBCHEM_CACTVS_HBOND_DONOR>
0

> <PUBCHEM_CACTVS_ROTATABLE_BOND>
6

> <PUBCHEM_CACTVS_SUBSKEYS>
AAADceB7IAAAAAAAAAAAAAAAAAAAAWAAAAA8QAAAAAAAAAABwAAAHgAAAAAADCzhmgY+hpMIFACgAjBnRASCiCAxYCAI2CAvTJgOJuLEsZuHOCjkwBHY6Aew0OIOAAAAAAAAAAAAAAAAAAAAAAAAAAAAAA==

> <PUBCHEM_IUPAC_OPENEYE_NAME>
3-[(1-methylpyrrolidin-2-yl)methoxy]-5-(2-phenylethyl)pyridine

> <PUBCHEM_IUPAC_CAS_NAME>
3-[(1-methyl-2-pyrrolidinyl)methoxy]-5-(2-phenylethyl)pyridine

> <PUBCHEM_IUPAC_NAME_MARKUP>
3-[(1-methylpyrrolidin-2-yl)methoxy]-5-(2-phenylethyl)pyridine

> <PUBCHEM_IUPAC_NAME>
3-[(1-methylpyrrolidin-2-yl)methoxy]-5-(2-phenylethyl)pyridine

> <PUBCHEM_IUPAC_SYSTEMATIC_NAME>
3-[(1-methylpyrrolidin-2-yl)methoxy]-5-(2-phenylethyl)pyridine

> <PUBCHEM_IUPAC_TRADITIONAL_NAME>
3-[(1-methylpyrrolidin-2-yl)methoxy]-5-phenethyl-pyridine

> <PUBCHEM_IUPAC_INCHI>
InChI=1S/C19H24N2O/c1-21-11-5-8-18(21)15-22-19-12-17(13-20-14-19)10-9-16-6-3-2-4-7-16/h2-4,6-7,12-14,18H,5,8-11,15H2,1H3

> <PUBCHEM_IUPAC_INCHIKEY>
YKDUCUOEQZDTMD-UHFFFAOYSA-N

> <PUBCHEM_XLOGP3_AA>
3.6

> <PUBCHEM_EXACT_MASS>
296.188863393

> <PUBCHEM_MOLECULAR_FORMULA>
C19H24N2O

> <PUBCHEM_MOLECULAR_WEIGHT>
296.4

> <PUBCHEM_SMILES>
CN1CCCC1COC2=CN=CC(=C2)CCC3=CC=CC=C3

> <PUBCHEM_OPENEYE_CAN_SMILES>
CN1CCCC1COC2=CN=CC(=C2)CCC3=CC=CC=C3

> <PUBCHEM_OPENEYE_ISO_SMILES>
CN1CCCC1COC2=CN=CC(=C2)CCC3=CC=CC=C3

> <PUBCHEM_CACTVS_TPSA>
25.4

> <PUBCHEM_MONOISOTOPIC_WEIGHT>
296.188863393

> <PUBCHEM_TOTAL_CHARGE>
0

> <PUBCHEM_HEAVY_ATOM_COUNT>
22

> <PUBCHEM_ATOM_DEF_STEREO_COUNT>
0

> <PUBCHEM_ATOM_UDEF_STEREO_COUNT>
1

> <PUBCHEM_BOND_DEF_STEREO_COUNT>
0

> <PUBCHEM_BOND_UDEF_STEREO_COUNT>
0

> <PUBCHEM_ISOTOPIC_ATOM_COUNT>
0

> <PUBCHEM_COMPONENT_COUNT>
1

> <PUBCHEM_CACTVS_TAUTO_COUNT>
-1

> <PUBCHEM_COORDINATE_TYPE>
1
5
255

> <PUBCHEM_BONDANNOTATIONS>
10  11  8
10  15  8
11  12  8
12  16  8
17  18  8
17  19  8
18  20  8
19  21  8
20  22  8
21  22  8
3  15  8
3  16  8
4  8  3

$$$$
