24180596
  -OEChem-03202506072D

 56 60  0     0  0  0  0  0  0999 V2000
    2.3053    2.7136    0.0000 O   0  0  0  0  0  0  0  0  0  0  0  0
    7.6200   -0.5659    0.0000 O   0  0  0  0  0  0  0  0  0  0  0  0
    3.6493    1.2324    0.0000 N   0  0  0  0  0  0  0  0  0  0  0  0
   11.4343   -2.4230    0.0000 N   0  0  0  0  0  0  0  0  0  0  0  0
   12.4284   -2.4222    0.0000 N   0  0  0  0  0  0  0  0  0  0  0  0
   15.3816   -1.5327    0.0000 N   0  0  0  0  0  0  0  0  0  0  0  0
   17.4943    0.0598    0.0000 N   0  0  0  0  0  0  0  0  0  0  0  0
    4.3213    0.4919    0.0000 C   0  0  0  0  0  0  0  0  0  0  0  0
    2.6720    1.0208    0.0000 C   0  0  0  0  0  0  0  0  0  0  0  0
    3.9547    2.1847    0.0000 C   0  0  0  0  0  0  0  0  0  0  0  0
    5.2987    0.7036    0.0000 C   0  0  0  0  0  0  0  0  0  0  0  0
   11.6247    0.0604    0.0000 C   0  0  0  0  0  0  0  0  0  0  0  0
   11.9337   -0.8906    0.0000 C   0  0  0  0  0  0  0  0  0  0  0  0
   10.6247    0.0604    0.0000 C   0  0  0  0  0  0  0  0  0  0  0  0
   10.3157   -0.8906    0.0000 C   0  0  0  0  0  0  0  0  0  0  0  0
   11.1247   -1.4784    0.0000 C   0  0  0  0  0  0  0  0  0  0  0  0
    5.9706   -0.0370    0.0000 C   0  0  0  0  0  0  0  0  0  0  0  0
    2.0000    1.7613    0.0000 C   0  0  0  0  0  0  0  0  0  0  0  0
    3.2827    2.9252    0.0000 C   0  0  0  0  0  0  0  0  0  0  0  0
   12.7364   -1.4770    0.0000 C   0  0  0  0  0  0  0  0  0  0  0  0
    6.9480    0.1747    0.0000 C   0  0  0  0  0  0  0  0  0  0  0  0
    9.3002   -1.1229    0.0000 C   0  0  0  0  0  0  0  0  0  0  0  0
    9.9397    0.8452    0.0000 C   0  0  0  0  0  0  0  0  0  0  0  0
    8.5973   -0.3542    0.0000 C   0  0  0  0  0  0  0  0  0  0  0  0
    8.9192    0.6365    0.0000 C   0  0  0  0  0  0  0  0  0  0  0  0
   13.6880   -1.1696    0.0000 C   0  0  0  0  0  0  0  0  0  0  0  0
   13.8976   -0.1919    0.0000 C   0  0  0  0  0  0  0  0  0  0  0  0
   14.4300   -1.8401    0.0000 C   0  0  0  0  0  0  0  0  0  0  0  0
   14.8492    0.1155    0.0000 C   0  0  0  0  0  0  0  0  0  0  0  0
   15.5912   -0.5549    0.0000 C   0  0  0  0  0  0  0  0  0  0  0  0
   16.5428   -0.2475    0.0000 C   0  0  0  0  0  0  0  0  0  0  0  0
    3.7968    0.1613    0.0000 H   0  0  0  0  0  0  0  0  0  0  0  0
    4.5558   -0.0821    0.0000 H   0  0  0  0  0  0  0  0  0  0  0  0
    2.1475    0.6902    0.0000 H   0  0  0  0  0  0  0  0  0  0  0  0
    2.9065    0.4468    0.0000 H   0  0  0  0  0  0  0  0  0  0  0  0
    4.5032    1.8957    0.0000 H   0  0  0  0  0  0  0  0  0  0  0  0
    4.3345    2.6747    0.0000 H   0  0  0  0  0  0  0  0  0  0  0  0
    5.8232    1.0341    0.0000 H   0  0  0  0  0  0  0  0  0  0  0  0
    5.0642    1.2775    0.0000 H   0  0  0  0  0  0  0  0  0  0  0  0
   12.2311    0.1893    0.0000 H   0  0  0  0  0  0  0  0  0  0  0  0
   11.5599    0.6770    0.0000 H   0  0  0  0  0  0  0  0  0  0  0  0
    5.4461   -0.3676    0.0000 H   0  0  0  0  0  0  0  0  0  0  0  0
    6.2051   -0.6109    0.0000 H   0  0  0  0  0  0  0  0  0  0  0  0
    1.4514    2.0503    0.0000 H   0  0  0  0  0  0  0  0  0  0  0  0
    1.6202    1.2713    0.0000 H   0  0  0  0  0  0  0  0  0  0  0  0
    3.8072    3.2558    0.0000 H   0  0  0  0  0  0  0  0  0  0  0  0
    3.0482    3.4992    0.0000 H   0  0  0  0  0  0  0  0  0  0  0  0
    7.4725    0.5053    0.0000 H   0  0  0  0  0  0  0  0  0  0  0  0
    6.7135    0.7486    0.0000 H   0  0  0  0  0  0  0  0  0  0  0  0
    9.1155   -1.7147    0.0000 H   0  0  0  0  0  0  0  0  0  0  0  0
   10.1381    1.4326    0.0000 H   0  0  0  0  0  0  0  0  0  0  0  0
   11.0708   -2.9252    0.0000 H   0  0  0  0  0  0  0  0  0  0  0  0
    8.5061    1.0988    0.0000 H   0  0  0  0  0  0  0  0  0  0  0  0
   13.4376    0.2238    0.0000 H   0  0  0  0  0  0  0  0  0  0  0  0
   14.3000   -2.4463    0.0000 H   0  0  0  0  0  0  0  0  0  0  0  0
   14.9791    0.7217    0.0000 H   0  0  0  0  0  0  0  0  0  0  0  0
  1 18  1  0  0  0  0
  1 19  1  0  0  0  0
  2 21  1  0  0  0  0
  2 24  1  0  0  0  0
  3  8  1  0  0  0  0
  3  9  1  0  0  0  0
  3 10  1  0  0  0  0
  4  5  1  0  0  0  0
  4 16  1  0  0  0  0
  4 52  1  0  0  0  0
  5 20  2  0  0  0  0
  6 28  1  0  0  0  0
  6 30  2  0  0  0  0
  7 31  3  0  0  0  0
  8 11  1  0  0  0  0
  8 32  1  0  0  0  0
  8 33  1  0  0  0  0
  9 18  1  0  0  0  0
  9 34  1  0  0  0  0
  9 35  1  0  0  0  0
 10 19  1  0  0  0  0
 10 36  1  0  0  0  0
 10 37  1  0  0  0  0
 11 17  1  0  0  0  0
 11 38  1  0  0  0  0
 11 39  1  0  0  0  0
 12 13  1  0  0  0  0
 12 14  1  0  0  0  0
 12 40  1  0  0  0  0
 12 41  1  0  0  0  0
 13 16  2  0  0  0  0
 13 20  1  0  0  0  0
 14 15  2  0  0  0  0
 14 23  1  0  0  0  0
 15 16  1  0  0  0  0
 15 22  1  0  0  0  0
 17 21  1  0  0  0  0
 17 42  1  0  0  0  0
 17 43  1  0  0  0  0
 18 44  1  0  0  0  0
 18 45  1  0  0  0  0
 19 46  1  0  0  0  0
 19 47  1  0  0  0  0
 20 26  1  0  0  0  0
 21 48  1  0  0  0  0
 21 49  1  0  0  0  0
 22 24  2  0  0  0  0
 22 50  1  0  0  0  0
 23 25  2  0  0  0  0
 23 51  1  0  0  0  0
 24 25  1  0  0  0  0
 25 53  1  0  0  0  0
 26 27  1  0  0  0  0
 26 28  2  0  0  0  0
 27 29  2  0  0  0  0
 27 54  1  0  0  0  0
 28 55  1  0  0  0  0
 29 30  1  0  0  0  0
 29 56  1  0  0  0  0
 30 31  1  0  0  0  0
M  END
> <PUBCHEM_COMPOUND_CID>
24180596

> <PUBCHEM_COMPOUND_CANONICALIZED>
1

> <PUBCHEM_CACTVS_COMPLEXITY>
633

> <PUBCHEM_CACTVS_HBOND_ACCEPTOR>
6

> <PUBCHEM_CACTVS_HBOND_DONOR>
1

> <PUBCHEM_CACTVS_ROTATABLE_BOND>
7

> <PUBCHEM_CACTVS_SUBSKEYS>
AAADceB7sAAAAAAAAAAAAAAAAAAAAeIAAAA8WIAAAAAWAGAB8AAAHgAYAAAADAzhngY8hpNrFACyBzRnRACyjCAxIiAY+SA+bJgOpuLE8duHvCjkyBHY6A+wwPAOoAABAAAQAABAAAIAACAAASAACQAAAA==

> <PUBCHEM_IUPAC_OPENEYE_NAME>
5-[7-(4-morpholinobutoxy)-1,4-dihydroindeno[1,2-c]pyrazol-3-yl]pyridine-2-carbonitrile

> <PUBCHEM_IUPAC_CAS_NAME>
5-[7-[4-(4-morpholinyl)butoxy]-1,4-dihydroindeno[1,2-c]pyrazol-3-yl]-2-pyridinecarbonitrile

> <PUBCHEM_IUPAC_NAME_MARKUP>
5-[7-(4-morpholin-4-ylbutoxy)-1,4-dihydroindeno[1,2-c]pyrazol-3-yl]pyridine-2-carbonitrile

> <PUBCHEM_IUPAC_NAME>
5-[7-(4-morpholin-4-ylbutoxy)-1,4-dihydroindeno[1,2-c]pyrazol-3-yl]pyridine-2-carbonitrile

> <PUBCHEM_IUPAC_SYSTEMATIC_NAME>
5-[7-(4-morpholin-4-ylbutoxy)-1,4-dihydroindeno[1,2-c]pyrazol-3-yl]pyridine-2-carbonitrile

> <PUBCHEM_IUPAC_TRADITIONAL_NAME>
5-[7-(4-morpholinobutoxy)-1,4-dihydroindeno[1,2-c]pyrazol-3-yl]picolinonitrile

> <PUBCHEM_IUPAC_INCHI>
InChI=1S/C24H25N5O2/c25-15-19-5-3-18(16-26-19)23-22-13-17-4-6-20(14-21(17)24(22)28-27-23)31-10-2-1-7-29-8-11-30-12-9-29/h3-6,14,16H,1-2,7-13H2,(H,27,28)

> <PUBCHEM_IUPAC_INCHIKEY>
WUBHCQHBUVGGRX-UHFFFAOYSA-N

> <PUBCHEM_XLOGP3_AA>
2.9

> <PUBCHEM_EXACT_MASS>
415.20082506

> <PUBCHEM_MOLECULAR_FORMULA>
C24H25N5O2

> <PUBCHEM_MOLECULAR_WEIGHT>
415.5

> <PUBCHEM_SMILES>
C1COCCN1CCCCOC2=CC3=C(CC4=C3NN=C4C5=CN=C(C=C5)C#N)C=C2

> <PUBCHEM_OPENEYE_CAN_SMILES>
C1COCCN1CCCCOC2=CC3=C(CC4=C3NN=C4C5=CN=C(C=C5)C#N)C=C2

> <PUBCHEM_OPENEYE_ISO_SMILES>
C1COCCN1CCCCOC2=CC3=C(CC4=C3NN=C4C5=CN=C(C=C5)C#N)C=C2

> <PUBCHEM_CACTVS_TPSA>
87.1

> <PUBCHEM_MONOISOTOPIC_WEIGHT>
415.20082506

> <PUBCHEM_TOTAL_CHARGE>
0

> <PUBCHEM_HEAVY_ATOM_COUNT>
31

> <PUBCHEM_ATOM_DEF_STEREO_COUNT>
0

> <PUBCHEM_ATOM_UDEF_STEREO_COUNT>
0

> <PUBCHEM_BOND_DEF_STEREO_COUNT>
0

> <PUBCHEM_BOND_UDEF_STEREO_COUNT>
0

> <PUBCHEM_ISOTOPIC_ATOM_COUNT>
0

> <PUBCHEM_COMPONENT_COUNT>
1

> <PUBCHEM_CACTVS_TAUTO_COUNT>
-1

> <PUBCHEM_COORDINATE_TYPE>
1
5
255

> <PUBCHEM_BONDANNOTATIONS>
13  16  8
13  20  8
14  15  8
14  23  8
15  22  8
22  24  8
23  25  8
24  25  8
26  27  8
26  28  8
27  29  8
29  30  8
4  16  8
4  5  8
5  20  8
6  28  8
6  30  8

$$$$
