22607792
  -OEChem-03202500572D

 49 53  0     1  0  0  0  0  0999 V2000
   10.5720    2.0095    0.0000 S   0  0  0  0  0  0  0  0  0  0  0  0
    7.2566    0.3631    0.0000 O   0  0  0  0  0  0  0  0  0  0  0  0
    4.6783   -3.5598    0.0000 N   0  0  0  0  0  0  0  0  0  0  0  0
    6.6353   -1.5379    0.0000 N   0  0  0  0  0  0  0  0  0  0  0  0
    7.2101    3.0084    0.0000 N   0  0  0  0  0  0  0  0  0  0  0  0
   13.1298    2.8600    0.0000 N   0  0  0  0  0  0  0  0  0  0  0  0
    4.9889   -0.9999    0.0000 C   0  0  0  0  0  0  0  0  0  0  0  0
    5.9674   -0.7936    0.0000 C   0  0  3  0  0  0  0  0  0  0  0  0
    4.6783   -1.9504    0.0000 C   0  0  0  0  0  0  0  0  0  0  0  0
    3.7320   -2.2551    0.0000 C   0  0  0  0  0  0  0  0  0  0  0  0
    6.2781    0.1569    0.0000 C   0  0  0  0  0  0  0  0  0  0  0  0
    3.7320   -3.2551    0.0000 C   0  0  0  0  0  0  0  0  0  0  0  0
    5.2619   -2.7551    0.0000 C   0  0  0  0  0  0  0  0  0  0  0  0
    2.8660   -1.7551    0.0000 C   0  0  0  0  0  0  0  0  0  0  0  0
    2.8660   -3.7551    0.0000 C   0  0  0  0  0  0  0  0  0  0  0  0
    2.0000   -2.2551    0.0000 C   0  0  0  0  0  0  0  0  0  0  0  0
    2.0000   -3.2551    0.0000 C   0  0  0  0  0  0  0  0  0  0  0  0
    7.5673    1.3136    0.0000 C   0  0  0  0  0  0  0  0  0  0  0  0
    8.8564    2.4704    0.0000 C   0  0  0  0  0  0  0  0  0  0  0  0
    8.5458    1.5198    0.0000 C   0  0  0  0  0  0  0  0  0  0  0  0
    9.8349    2.6766    0.0000 C   0  0  0  0  0  0  0  0  0  0  0  0
   11.2288    3.4813    0.0000 C   0  0  0  0  0  0  0  0  0  0  0  0
   10.2401    3.5844    0.0000 C   0  0  0  0  0  0  0  0  0  0  0  0
   11.4350    2.5028    0.0000 C   0  0  0  0  0  0  0  0  0  0  0  0
    6.8994    2.0579    0.0000 C   0  0  0  0  0  0  0  0  0  0  0  0
    8.1886    3.2147    0.0000 C   0  0  0  0  0  0  0  0  0  0  0  0
   11.9731    4.1492    0.0000 C   0  0  0  0  0  0  0  0  0  0  0  0
   12.3855    2.1922    0.0000 C   0  0  0  0  0  0  0  0  0  0  0  0
   12.9236    3.8385    0.0000 C   0  0  0  0  0  0  0  0  0  0  0  0
    4.9684   -0.3802    0.0000 H   0  0  0  0  0  0  0  0  0  0  0  0
    4.3751   -0.9125    0.0000 H   0  0  0  0  0  0  0  0  0  0  0  0
    5.7748   -1.3830    0.0000 H   0  0  0  0  0  0  0  0  0  0  0  0
    6.2575    0.7765    0.0000 H   0  0  0  0  0  0  0  0  0  0  0  0
    5.6643    0.2442    0.0000 H   0  0  0  0  0  0  0  0  0  0  0  0
    5.8819   -2.7551    0.0000 H   0  0  0  0  0  0  0  0  0  0  0  0
    4.8709   -4.1492    0.0000 H   0  0  0  0  0  0  0  0  0  0  0  0
    2.8660   -1.1351    0.0000 H   0  0  0  0  0  0  0  0  0  0  0  0
    7.2420   -1.4101    0.0000 H   0  0  0  0  0  0  0  0  0  0  0  0
    6.4427   -2.1273    0.0000 H   0  0  0  0  0  0  0  0  0  0  0  0
    2.8660   -4.3751    0.0000 H   0  0  0  0  0  0  0  0  0  0  0  0
    1.4631   -1.9451    0.0000 H   0  0  0  0  0  0  0  0  0  0  0  0
    1.4631   -3.5651    0.0000 H   0  0  0  0  0  0  0  0  0  0  0  0
    8.9598    1.0584    0.0000 H   0  0  0  0  0  0  0  0  0  0  0  0
    9.9301    4.1213    0.0000 H   0  0  0  0  0  0  0  0  0  0  0  0
    6.2928    1.9301    0.0000 H   0  0  0  0  0  0  0  0  0  0  0  0
    8.3812    3.8040    0.0000 H   0  0  0  0  0  0  0  0  0  0  0  0
   11.8452    4.7558    0.0000 H   0  0  0  0  0  0  0  0  0  0  0  0
   12.5134    1.5855    0.0000 H   0  0  0  0  0  0  0  0  0  0  0  0
   13.3851    4.2526    0.0000 H   0  0  0  0  0  0  0  0  0  0  0  0
  1 21  1  0  0  0  0
  1 24  1  0  0  0  0
  2 11  1  0  0  0  0
  2 18  1  0  0  0  0
  3 12  1  0  0  0  0
  3 13  1  0  0  0  0
  3 36  1  0  0  0  0
  4  8  1  0  0  0  0
  4 38  1  0  0  0  0
  4 39  1  0  0  0  0
  5 25  1  0  0  0  0
  5 26  2  0  0  0  0
  6 28  2  0  0  0  0
  6 29  1  0  0  0  0
  7  8  1  0  0  0  0
  7  9  1  0  0  0  0
  7 30  1  0  0  0  0
  7 31  1  0  0  0  0
  8 11  1  0  0  0  0
  8 32  1  0  0  0  0
  9 10  1  0  0  0  0
  9 13  2  0  0  0  0
 10 12  1  0  0  0  0
 10 14  2  0  0  0  0
 11 33  1  0  0  0  0
 11 34  1  0  0  0  0
 12 15  2  0  0  0  0
 13 35  1  0  0  0  0
 14 16  1  0  0  0  0
 14 37  1  0  0  0  0
 15 17  1  0  0  0  0
 15 40  1  0  0  0  0
 16 17  2  0  0  0  0
 16 41  1  0  0  0  0
 17 42  1  0  0  0  0
 18 20  1  0  0  0  0
 18 25  2  0  0  0  0
 19 20  2  0  0  0  0
 19 21  1  0  0  0  0
 19 26  1  0  0  0  0
 20 43  1  0  0  0  0
 21 23  2  0  0  0  0
 22 23  1  0  0  0  0
 22 24  2  0  0  0  0
 22 27  1  0  0  0  0
 23 44  1  0  0  0  0
 24 28  1  0  0  0  0
 25 45  1  0  0  0  0
 26 46  1  0  0  0  0
 27 29  2  0  0  0  0
 27 47  1  0  0  0  0
 28 48  1  0  0  0  0
 29 49  1  0  0  0  0
M  END
> <PUBCHEM_COMPOUND_CID>
22607792

> <PUBCHEM_COMPOUND_CANONICALIZED>
1

> <PUBCHEM_CACTVS_COMPLEXITY>
537

> <PUBCHEM_CACTVS_HBOND_ACCEPTOR>
5

> <PUBCHEM_CACTVS_HBOND_DONOR>
2

> <PUBCHEM_CACTVS_ROTATABLE_BOND>
6

> <PUBCHEM_CACTVS_SUBSKEYS>
AAADceB7oABAAAAAAAAAAAAAAAAAAWJAAAA8WIAAAAAAAFgB/gAAHgQQAAAADCzh3gY8x/LJlAikAzRnRASDqKAxajBI2bw/bJgOJuLksZuHOCjk0BH46Aew0PIOgAAAAAACAAAAAAAAAAQAAAAAAAAAAA==

> <PUBCHEM_IUPAC_OPENEYE_NAME>
1-(1H-indol-3-yl)-3-[(5-thieno[2,3-c]pyridin-2-yl-3-pyridyl)oxy]propan-2-amine

> <PUBCHEM_IUPAC_CAS_NAME>
1-(1H-indol-3-yl)-3-[[5-(2-thieno[2,3-c]pyridinyl)-3-pyridinyl]oxy]-2-propanamine

> <PUBCHEM_IUPAC_NAME_MARKUP>
1-(1<I>H</I>-indol-3-yl)-3-(5-thieno[2,3-c]pyridin-2-ylpyridin-3-yl)oxypropan-2-amine

> <PUBCHEM_IUPAC_NAME>
1-(1H-indol-3-yl)-3-(5-thieno[2,3-c]pyridin-2-ylpyridin-3-yl)oxypropan-2-amine

> <PUBCHEM_IUPAC_SYSTEMATIC_NAME>
1-(1H-indol-3-yl)-3-(5-thieno[2,3-c]pyridin-2-ylpyridin-3-yl)oxy-propan-2-amine

> <PUBCHEM_IUPAC_TRADITIONAL_NAME>
[1-(1H-indol-3-ylmethyl)-2-[(5-thieno[2,3-c]pyridin-2-yl-3-pyridyl)oxy]ethyl]amine

> <PUBCHEM_IUPAC_INCHI>
InChI=1S/C23H20N4OS/c24-18(7-16-11-27-21-4-2-1-3-20(16)21)14-28-19-8-17(10-26-12-19)22-9-15-5-6-25-13-23(15)29-22/h1-6,8-13,18,27H,7,14,24H2

> <PUBCHEM_IUPAC_INCHIKEY>
GWJHMRBQEUHFOC-UHFFFAOYSA-N

> <PUBCHEM_XLOGP3_AA>
3.6

> <PUBCHEM_EXACT_MASS>
400.13578245

> <PUBCHEM_MOLECULAR_FORMULA>
C23H20N4OS

> <PUBCHEM_MOLECULAR_WEIGHT>
400.5

> <PUBCHEM_SMILES>
C1=CC=C2C(=C1)C(=CN2)CC(COC3=CN=CC(=C3)C4=CC5=C(S4)C=NC=C5)N

> <PUBCHEM_OPENEYE_CAN_SMILES>
C1=CC=C2C(=C1)C(=CN2)CC(COC3=CN=CC(=C3)C4=CC5=C(S4)C=NC=C5)N

> <PUBCHEM_OPENEYE_ISO_SMILES>
C1=CC=C2C(=C1)C(=CN2)CC(COC3=CN=CC(=C3)C4=CC5=C(S4)C=NC=C5)N

> <PUBCHEM_CACTVS_TPSA>
105

> <PUBCHEM_MONOISOTOPIC_WEIGHT>
400.13578245

> <PUBCHEM_TOTAL_CHARGE>
0

> <PUBCHEM_HEAVY_ATOM_COUNT>
29

> <PUBCHEM_ATOM_DEF_STEREO_COUNT>
0

> <PUBCHEM_ATOM_UDEF_STEREO_COUNT>
1

> <PUBCHEM_BOND_DEF_STEREO_COUNT>
0

> <PUBCHEM_BOND_UDEF_STEREO_COUNT>
0

> <PUBCHEM_ISOTOPIC_ATOM_COUNT>
0

> <PUBCHEM_COMPONENT_COUNT>
1

> <PUBCHEM_CACTVS_TAUTO_COUNT>
-1

> <PUBCHEM_COORDINATE_TYPE>
1
5
255

> <PUBCHEM_BONDANNOTATIONS>
1  21  8
1  24  8
10  12  8
10  14  8
12  15  8
14  16  8
15  17  8
16  17  8
18  20  8
18  25  8
19  20  8
19  26  8
21  23  8
22  23  8
22  24  8
22  27  8
24  28  8
27  29  8
3  12  8
3  13  8
8  4  3
5  25  8
5  26  8
6  28  8
6  29  8
9  10  8
9  13  8

$$$$
