49830644
  -OEChem-03202503352D

 41 43  0     0  0  0  0  0  0999 V2000
    3.4782   -0.7445    0.0000 S   0  0  0  0  0  0  0  0  0  0  0  0
    9.6448   -1.2500    0.0000 O   0  0  0  0  0  0  0  0  0  0  0  0
    8.7788    0.2500    0.0000 N   0  0  0  0  0  0  0  0  0  0  0  0
    7.0468    0.2500    0.0000 N   0  0  0  0  0  0  0  0  0  0  0  0
    5.3147    0.2500    0.0000 N   0  0  0  0  0  0  0  0  0  0  0  0
    6.1808    1.7500    0.0000 N   0  0  0  0  0  0  0  0  0  0  0  0
    7.9128    1.7500    0.0000 N   0  0  0  0  0  0  0  0  0  0  0  0
   10.5109    0.2500    0.0000 C   0  0  0  0  0  0  0  0  0  0  0  0
    9.6448    0.7500    0.0000 C   0  0  0  0  0  0  0  0  0  0  0  0
   10.5109   -0.7500    0.0000 C   0  0  0  0  0  0  0  0  0  0  0  0
   11.3769    0.7500    0.0000 C   0  0  0  0  0  0  0  0  0  0  0  0
   11.3769   -1.2500    0.0000 C   0  0  0  0  0  0  0  0  0  0  0  0
   12.2429    0.2500    0.0000 C   0  0  0  0  0  0  0  0  0  0  0  0
    4.4487    0.7500    0.0000 C   0  0  0  0  0  0  0  0  0  0  0  0
   12.2429   -0.7500    0.0000 C   0  0  0  0  0  0  0  0  0  0  0  0
    3.5827    0.2500    0.0000 C   0  0  0  0  0  0  0  0  0  0  0  0
    7.9128    0.7500    0.0000 C   0  0  0  0  0  0  0  0  0  0  0  0
    6.1808    0.7500    0.0000 C   0  0  0  0  0  0  0  0  0  0  0  0
    4.4487    1.7500    0.0000 C   0  0  0  0  0  0  0  0  0  0  0  0
    2.6691    0.6567    0.0000 C   0  0  0  0  0  0  0  0  0  0  0  0
    5.3147    2.2500    0.0000 C   0  0  0  0  0  0  0  0  0  0  0  0
    2.0000   -0.0864    0.0000 C   0  0  0  0  0  0  0  0  0  0  0  0
    2.5000   -0.9524    0.0000 C   0  0  0  0  0  0  0  0  0  0  0  0
    9.6448   -2.2500    0.0000 C   0  0  0  0  0  0  0  0  0  0  0  0
   10.0434    1.2250    0.0000 H   0  0  0  0  0  0  0  0  0  0  0  0
    9.2463    1.2250    0.0000 H   0  0  0  0  0  0  0  0  0  0  0  0
   11.3769    1.3700    0.0000 H   0  0  0  0  0  0  0  0  0  0  0  0
   11.3769   -1.8700    0.0000 H   0  0  0  0  0  0  0  0  0  0  0  0
   12.7799    0.5600    0.0000 H   0  0  0  0  0  0  0  0  0  0  0  0
   12.7799   -1.0600    0.0000 H   0  0  0  0  0  0  0  0  0  0  0  0
    7.0468   -0.3700    0.0000 H   0  0  0  0  0  0  0  0  0  0  0  0
    3.9118    2.0600    0.0000 H   0  0  0  0  0  0  0  0  0  0  0  0
    2.5402    1.2632    0.0000 H   0  0  0  0  0  0  0  0  0  0  0  0
    5.3147    2.8700    0.0000 H   0  0  0  0  0  0  0  0  0  0  0  0
    1.3834   -0.0216    0.0000 H   0  0  0  0  0  0  0  0  0  0  0  0
    2.2478   -1.5188    0.0000 H   0  0  0  0  0  0  0  0  0  0  0  0
    9.0248   -2.2500    0.0000 H   0  0  0  0  0  0  0  0  0  0  0  0
    9.6448   -2.8700    0.0000 H   0  0  0  0  0  0  0  0  0  0  0  0
   10.2649   -2.2500    0.0000 H   0  0  0  0  0  0  0  0  0  0  0  0
    8.4497    2.0600    0.0000 H   0  0  0  0  0  0  0  0  0  0  0  0
    7.3759    2.0600    0.0000 H   0  0  0  0  0  0  0  0  0  0  0  0
  1 16  1  0  0  0  0
  1 23  1  0  0  0  0
  2 10  1  0  0  0  0
  2 24  1  0  0  0  0
  3  9  1  0  0  0  0
  3 17  2  0  0  0  0
  4 17  1  0  0  0  0
  4 18  1  0  0  0  0
  4 31  1  0  0  0  0
  5 14  2  0  0  0  0
  5 18  1  0  0  0  0
  6 18  2  0  0  0  0
  6 21  1  0  0  0  0
  7 17  1  0  0  0  0
  7 40  1  0  0  0  0
  7 41  1  0  0  0  0
  8  9  1  0  0  0  0
  8 10  1  0  0  0  0
  8 11  2  0  0  0  0
  9 25  1  0  0  0  0
  9 26  1  0  0  0  0
 10 12  2  0  0  0  0
 11 13  1  0  0  0  0
 11 27  1  0  0  0  0
 12 15  1  0  0  0  0
 12 28  1  0  0  0  0
 13 15  2  0  0  0  0
 13 29  1  0  0  0  0
 14 16  1  0  0  0  0
 14 19  1  0  0  0  0
 15 30  1  0  0  0  0
 16 20  2  0  0  0  0
 19 21  2  0  0  0  0
 19 32  1  0  0  0  0
 20 22  1  0  0  0  0
 20 33  1  0  0  0  0
 21 34  1  0  0  0  0
 22 23  2  0  0  0  0
 22 35  1  0  0  0  0
 23 36  1  0  0  0  0
 24 37  1  0  0  0  0
 24 38  1  0  0  0  0
 24 39  1  0  0  0  0
M  END
> <PUBCHEM_COMPOUND_CID>
49830644

> <PUBCHEM_COMPOUND_CANONICALIZED>
1

> <PUBCHEM_CACTVS_COMPLEXITY>
422

> <PUBCHEM_CACTVS_HBOND_ACCEPTOR>
5

> <PUBCHEM_CACTVS_HBOND_DONOR>
2

> <PUBCHEM_CACTVS_ROTATABLE_BOND>
6

> <PUBCHEM_CACTVS_SUBSKEYS>
AAADceB7oABAAAAAAAAAAAAAAAAAASAAAAA8QAAAAAAAAAAB8AAAHgQQAAAADAzF3ga/l5bIFAikAzRnZACDiKkxKrBJ2Dg+bJiMLqLk+duENChuwBNo6CeQwCAOAAAAAAAIAAAAAAAAABAAAAAAAAAAAA==

> <PUBCHEM_IUPAC_OPENEYE_NAME>
2-[(2-methoxyphenyl)methyl]-1-[4-(2-thienyl)pyrimidin-2-yl]guanidine

> <PUBCHEM_IUPAC_CAS_NAME>
2-[(2-methoxyphenyl)methyl]-1-(4-thiophen-2-yl-2-pyrimidinyl)guanidine

> <PUBCHEM_IUPAC_NAME_MARKUP>
2-[(2-methoxyphenyl)methyl]-1-(4-thiophen-2-ylpyrimidin-2-yl)guanidine

> <PUBCHEM_IUPAC_NAME>
2-[(2-methoxyphenyl)methyl]-1-(4-thiophen-2-ylpyrimidin-2-yl)guanidine

> <PUBCHEM_IUPAC_SYSTEMATIC_NAME>
2-[(2-methoxyphenyl)methyl]-1-(4-thiophen-2-ylpyrimidin-2-yl)guanidine

> <PUBCHEM_IUPAC_TRADITIONAL_NAME>
2-o-anisyl-1-[4-(2-thienyl)pyrimidin-2-yl]guanidine

> <PUBCHEM_IUPAC_INCHI>
InChI=1S/C17H17N5OS/c1-23-14-6-3-2-5-12(14)11-20-16(18)22-17-19-9-8-13(21-17)15-7-4-10-24-15/h2-10H,11H2,1H3,(H3,18,19,20,21,22)

> <PUBCHEM_IUPAC_INCHIKEY>
RSFBNWZRZYKDMI-UHFFFAOYSA-N

> <PUBCHEM_XLOGP3_AA>
2.3

> <PUBCHEM_EXACT_MASS>
339.11538136

> <PUBCHEM_MOLECULAR_FORMULA>
C17H17N5OS

> <PUBCHEM_MOLECULAR_WEIGHT>
339.4

> <PUBCHEM_SMILES>
COC1=CC=CC=C1CN=C(N)NC2=NC=CC(=N2)C3=CC=CS3

> <PUBCHEM_OPENEYE_CAN_SMILES>
COC1=CC=CC=C1CN=C(N)NC2=NC=CC(=N2)C3=CC=CS3

> <PUBCHEM_OPENEYE_ISO_SMILES>
COC1=CC=CC=C1CN=C(N)NC2=NC=CC(=N2)C3=CC=CS3

> <PUBCHEM_CACTVS_TPSA>
114

> <PUBCHEM_MONOISOTOPIC_WEIGHT>
339.11538136

> <PUBCHEM_TOTAL_CHARGE>
0

> <PUBCHEM_HEAVY_ATOM_COUNT>
24

> <PUBCHEM_ATOM_DEF_STEREO_COUNT>
0

> <PUBCHEM_ATOM_UDEF_STEREO_COUNT>
0

> <PUBCHEM_BOND_DEF_STEREO_COUNT>
0

> <PUBCHEM_BOND_UDEF_STEREO_COUNT>
0

> <PUBCHEM_ISOTOPIC_ATOM_COUNT>
0

> <PUBCHEM_COMPONENT_COUNT>
1

> <PUBCHEM_CACTVS_TAUTO_COUNT>
-1

> <PUBCHEM_COORDINATE_TYPE>
1
5
255

> <PUBCHEM_BONDANNOTATIONS>
1  16  8
1  23  8
10  12  8
11  13  8
12  15  8
13  15  8
14  19  8
16  20  8
19  21  8
20  22  8
22  23  8
5  14  8
5  18  8
6  18  8
6  21  8
8  10  8
8  11  8

$$$$
