53357848
  -OEChem-03202500332D

 58 63  0     0  0  0  0  0  0999 V2000
    9.8744   -5.8047    0.0000 S   0  0  0  0  0  0  0  0  0  0  0  0
    6.3301   -4.0000    0.0000 F   0  0  0  0  0  0  0  0  0  0  0  0
    2.8660    6.0000    0.0000 F   0  0  0  0  0  0  0  0  0  0  0  0
    8.0622   -3.0000    0.0000 O   0  0  0  0  0  0  0  0  0  0  0  0
    4.5981    2.0000    0.0000 O   0  0  0  0  0  0  0  0  0  0  0  0
    5.4641    0.5000    0.0000 O   0  0  0  0  0  0  0  0  0  0  0  0
    2.8660    2.0000    0.0000 N   0  0  0  0  0  0  0  0  0  0  0  0
    4.5981   -1.0000    0.0000 N   0  0  0  0  0  0  0  0  0  0  0  0
    8.0622   -6.0000    0.0000 N   0  0  0  0  0  0  0  0  0  0  0  0
    7.1962   -4.5000    0.0000 N   0  0  0  0  0  0  0  0  0  0  0  0
    8.9282   -4.5000    0.0000 C   0  0  0  0  0  0  0  0  0  0  0  0
    9.8744   -4.1953    0.0000 C   0  0  0  0  0  0  0  0  0  0  0  0
   10.1851   -3.2447    0.0000 C   0  0  0  0  0  0  0  0  0  0  0  0
    8.9282   -5.5000    0.0000 C   0  0  0  0  0  0  0  0  0  0  0  0
    8.0622   -4.0000    0.0000 C   0  0  0  0  0  0  0  0  0  0  0  0
   10.4580   -5.0000    0.0000 C   0  0  0  0  0  0  0  0  0  0  0  0
    3.7320    0.5000    0.0000 C   0  0  0  0  0  0  0  0  0  0  0  0
    2.8660    3.0000    0.0000 C   0  0  0  0  0  0  0  0  0  0  0  0
    3.7320    1.5000    0.0000 C   0  0  0  0  0  0  0  0  0  0  0  0
    5.4641   -1.5000    0.0000 C   0  0  0  0  0  0  0  0  0  0  0  0
    7.1962   -2.5000    0.0000 C   0  0  0  0  0  0  0  0  0  0  0  0
    9.5172   -2.5004    0.0000 C   0  0  0  0  0  0  0  0  0  0  0  0
   11.1636   -3.0385    0.0000 C   0  0  0  0  0  0  0  0  0  0  0  0
    2.0000    1.5000    0.0000 C   0  0  0  0  0  0  0  0  0  0  0  0
    4.5981   -0.0000    0.0000 C   0  0  0  0  0  0  0  0  0  0  0  0
    2.8660   -0.0000    0.0000 C   0  0  0  0  0  0  0  0  0  0  0  0
    5.4641   -2.5000    0.0000 C   0  0  0  0  0  0  0  0  0  0  0  0
    6.3301   -1.0000    0.0000 C   0  0  0  0  0  0  0  0  0  0  0  0
    6.3301   -3.0000    0.0000 C   0  0  0  0  0  0  0  0  0  0  0  0
    7.1962   -1.5000    0.0000 C   0  0  0  0  0  0  0  0  0  0  0  0
    2.0000    0.5000    0.0000 C   0  0  0  0  0  0  0  0  0  0  0  0
    2.0000    3.5000    0.0000 C   0  0  0  0  0  0  0  0  0  0  0  0
    3.7320    3.5000    0.0000 C   0  0  0  0  0  0  0  0  0  0  0  0
    9.8279   -1.5499    0.0000 C   0  0  0  0  0  0  0  0  0  0  0  0
   11.4743   -2.0880    0.0000 C   0  0  0  0  0  0  0  0  0  0  0  0
    7.1962   -5.5000    0.0000 C   0  0  0  0  0  0  0  0  0  0  0  0
   10.8064   -1.3437    0.0000 C   0  0  0  0  0  0  0  0  0  0  0  0
    2.0000    4.5000    0.0000 C   0  0  0  0  0  0  0  0  0  0  0  0
    3.7320    4.5000    0.0000 C   0  0  0  0  0  0  0  0  0  0  0  0
    2.8660    5.0000    0.0000 C   0  0  0  0  0  0  0  0  0  0  0  0
   11.0780   -5.0000    0.0000 H   0  0  0  0  0  0  0  0  0  0  0  0
    8.9106   -2.6283    0.0000 H   0  0  0  0  0  0  0  0  0  0  0  0
   11.5777   -3.5000    0.0000 H   0  0  0  0  0  0  0  0  0  0  0  0
    1.4631    1.8100    0.0000 H   0  0  0  0  0  0  0  0  0  0  0  0
    2.8660   -0.6200    0.0000 H   0  0  0  0  0  0  0  0  0  0  0  0
    4.0611   -1.3100    0.0000 H   0  0  0  0  0  0  0  0  0  0  0  0
    4.9272   -2.8100    0.0000 H   0  0  0  0  0  0  0  0  0  0  0  0
    6.3301   -0.3800    0.0000 H   0  0  0  0  0  0  0  0  0  0  0  0
    1.4631    0.1900    0.0000 H   0  0  0  0  0  0  0  0  0  0  0  0
    7.7331   -1.1900    0.0000 H   0  0  0  0  0  0  0  0  0  0  0  0
    1.4631    3.1900    0.0000 H   0  0  0  0  0  0  0  0  0  0  0  0
    4.2690    3.1900    0.0000 H   0  0  0  0  0  0  0  0  0  0  0  0
    9.4138   -1.0885    0.0000 H   0  0  0  0  0  0  0  0  0  0  0  0
   12.0809   -1.9602    0.0000 H   0  0  0  0  0  0  0  0  0  0  0  0
    6.6592   -5.8100    0.0000 H   0  0  0  0  0  0  0  0  0  0  0  0
   10.9990   -0.7544    0.0000 H   0  0  0  0  0  0  0  0  0  0  0  0
    1.4631    4.8100    0.0000 H   0  0  0  0  0  0  0  0  0  0  0  0
    4.2690    4.8100    0.0000 H   0  0  0  0  0  0  0  0  0  0  0  0
  1 14  1  0  0  0  0
  1 16  1  0  0  0  0
  2 29  1  0  0  0  0
  3 40  1  0  0  0  0
  4 15  1  0  0  0  0
  4 21  1  0  0  0  0
  5 19  2  0  0  0  0
  6 25  2  0  0  0  0
  7 18  1  0  0  0  0
  7 19  1  0  0  0  0
  7 24  1  0  0  0  0
  8 20  1  0  0  0  0
  8 25  1  0  0  0  0
  8 46  1  0  0  0  0
  9 14  2  0  0  0  0
  9 36  1  0  0  0  0
 10 15  1  0  0  0  0
 10 36  2  0  0  0  0
 11 12  1  0  0  0  0
 11 14  1  0  0  0  0
 11 15  2  0  0  0  0
 12 13  1  0  0  0  0
 12 16  2  0  0  0  0
 13 22  2  0  0  0  0
 13 23  1  0  0  0  0
 16 41  1  0  0  0  0
 17 19  1  0  0  0  0
 17 25  1  0  0  0  0
 17 26  2  0  0  0  0
 18 32  2  0  0  0  0
 18 33  1  0  0  0  0
 20 27  2  0  0  0  0
 20 28  1  0  0  0  0
 21 29  2  0  0  0  0
 21 30  1  0  0  0  0
 22 34  1  0  0  0  0
 22 42  1  0  0  0  0
 23 35  2  0  0  0  0
 23 43  1  0  0  0  0
 24 31  2  0  0  0  0
 24 44  1  0  0  0  0
 26 31  1  0  0  0  0
 26 45  1  0  0  0  0
 27 29  1  0  0  0  0
 27 47  1  0  0  0  0
 28 30  2  0  0  0  0
 28 48  1  0  0  0  0
 30 50  1  0  0  0  0
 31 49  1  0  0  0  0
 32 38  1  0  0  0  0
 32 51  1  0  0  0  0
 33 39  2  0  0  0  0
 33 52  1  0  0  0  0
 34 37  2  0  0  0  0
 34 53  1  0  0  0  0
 35 37  1  0  0  0  0
 35 54  1  0  0  0  0
 36 55  1  0  0  0  0
 37 56  1  0  0  0  0
 38 40  2  0  0  0  0
 38 57  1  0  0  0  0
 39 40  1  0  0  0  0
 39 58  1  0  0  0  0
M  END
> <PUBCHEM_COMPOUND_CID>
53357848

> <PUBCHEM_COMPOUND_CANONICALIZED>
1

> <PUBCHEM_CACTVS_COMPLEXITY>
984

> <PUBCHEM_CACTVS_HBOND_ACCEPTOR>
8

> <PUBCHEM_CACTVS_HBOND_DONOR>
1

> <PUBCHEM_CACTVS_ROTATABLE_BOND>
6

> <PUBCHEM_CACTVS_SUBSKEYS>
AAADceB7sYBAAAAAAAAAAAAAAAAAASAAAAA8YMECAAAAAFgB/AAAHwQQAAAADAzF2gy119fIFAisAiV3dACD2KlxKrgJ2DEubNiMLirs+duOPCzu1hvo6aewwOAOgEAAAAAAAAAAgAAAAAAAAAAAAAAAAA==

> <PUBCHEM_IUPAC_OPENEYE_NAME>
1-(4-fluorophenyl)-N-[3-fluoro-4-(5-phenylthieno[2,3-d]pyrimidin-4-yl)oxy-phenyl]-2-oxo-pyridine-3-carboxamide

> <PUBCHEM_IUPAC_CAS_NAME>
1-(4-fluorophenyl)-N-[3-fluoro-4-[(5-phenyl-4-thieno[2,3-d]pyrimidinyl)oxy]phenyl]-2-oxo-3-pyridinecarboxamide

> <PUBCHEM_IUPAC_NAME_MARKUP>
1-(4-fluorophenyl)-<I>N</I>-[3-fluoro-4-(5-phenylthieno[2,3-d]pyrimidin-4-yl)oxyphenyl]-2-oxopyridine-3-carboxamide

> <PUBCHEM_IUPAC_NAME>
1-(4-fluorophenyl)-N-[3-fluoro-4-(5-phenylthieno[2,3-d]pyrimidin-4-yl)oxyphenyl]-2-oxopyridine-3-carboxamide

> <PUBCHEM_IUPAC_SYSTEMATIC_NAME>
N-[3-fluoranyl-4-(5-phenylthieno[2,3-d]pyrimidin-4-yl)oxy-phenyl]-1-(4-fluorophenyl)-2-oxidanylidene-pyridine-3-carboxamide

> <PUBCHEM_IUPAC_TRADITIONAL_NAME>
1-(4-fluorophenyl)-N-[3-fluoro-4-(5-phenylthieno[2,3-d]pyrimidin-4-yl)oxy-phenyl]-2-keto-nicotinamide

> <PUBCHEM_IUPAC_INCHI>
InChI=1S/C30H18F2N4O3S/c31-19-8-11-21(12-9-19)36-14-4-7-22(30(36)38)27(37)35-20-10-13-25(24(32)15-20)39-28-26-23(18-5-2-1-3-6-18)16-40-29(26)34-17-33-28/h1-17H,(H,35,37)

> <PUBCHEM_IUPAC_INCHIKEY>
JSDFIHRUQVWHKK-UHFFFAOYSA-N

> <PUBCHEM_XLOGP3_AA>
6.3

> <PUBCHEM_EXACT_MASS>
552.10676795

> <PUBCHEM_MOLECULAR_FORMULA>
C30H18F2N4O3S

> <PUBCHEM_MOLECULAR_WEIGHT>
552.6

> <PUBCHEM_SMILES>
C1=CC=C(C=C1)C2=CSC3=NC=NC(=C23)OC4=C(C=C(C=C4)NC(=O)C5=CC=CN(C5=O)C6=CC=C(C=C6)F)F

> <PUBCHEM_OPENEYE_CAN_SMILES>
C1=CC=C(C=C1)C2=CSC3=NC=NC(=C23)OC4=C(C=C(C=C4)NC(=O)C5=CC=CN(C5=O)C6=CC=C(C=C6)F)F

> <PUBCHEM_OPENEYE_ISO_SMILES>
C1=CC=C(C=C1)C2=CSC3=NC=NC(=C23)OC4=C(C=C(C=C4)NC(=O)C5=CC=CN(C5=O)C6=CC=C(C=C6)F)F

> <PUBCHEM_CACTVS_TPSA>
113

> <PUBCHEM_MONOISOTOPIC_WEIGHT>
552.10676795

> <PUBCHEM_TOTAL_CHARGE>
0

> <PUBCHEM_HEAVY_ATOM_COUNT>
40

> <PUBCHEM_ATOM_DEF_STEREO_COUNT>
0

> <PUBCHEM_ATOM_UDEF_STEREO_COUNT>
0

> <PUBCHEM_BOND_DEF_STEREO_COUNT>
0

> <PUBCHEM_BOND_UDEF_STEREO_COUNT>
0

> <PUBCHEM_ISOTOPIC_ATOM_COUNT>
0

> <PUBCHEM_COMPONENT_COUNT>
1

> <PUBCHEM_CACTVS_TAUTO_COUNT>
-1

> <PUBCHEM_COORDINATE_TYPE>
1
5
255

> <PUBCHEM_BONDANNOTATIONS>
1  14  8
1  16  8
10  15  8
10  36  8
11  12  8
11  14  8
11  15  8
12  16  8
13  22  8
13  23  8
17  19  8
17  26  8
18  32  8
18  33  8
20  27  8
20  28  8
21  29  8
21  30  8
22  34  8
23  35  8
24  31  8
26  31  8
27  29  8
28  30  8
32  38  8
33  39  8
34  37  8
35  37  8
38  40  8
39  40  8
7  19  8
7  24  8
9  14  8
9  36  8

$$$$
