452239
  -OEChem-03202507292D

 52 54  0     1  0  0  0  0  0999 V2000
    6.8671    0.6550    0.0000 O   0  0  0  0  0  0  0  0  0  0  0  0
   10.3312    0.6550    0.0000 O   0  0  0  0  0  0  0  0  0  0  0  0
    8.5991    1.6550    0.0000 O   0  0  0  0  0  0  0  0  0  0  0  0
    7.7331   -2.8450    0.0000 O   0  0  0  0  0  0  0  0  0  0  0  0
    9.4651   -2.8450    0.0000 O   0  0  0  0  0  0  0  0  0  0  0  0
    6.0010   -0.8450    0.0000 O   0  0  0  0  0  0  0  0  0  0  0  0
   11.1972   -0.8450    0.0000 O   0  0  0  0  0  0  0  0  0  0  0  0
    2.5369    0.1550    0.0000 O   0  0  0  0  0  0  0  0  0  0  0  0
    4.2690    3.1550    0.0000 O   0  0  0  0  0  0  0  0  0  0  0  0
   12.9292    3.1550    0.0000 O   0  0  0  0  0  0  0  0  0  0  0  0
   14.6613    0.1550    0.0000 O   0  0  0  0  0  0  0  0  0  0  0  0
    2.5369    2.1550    0.0000 O   0  0  0  0  0  0  0  0  0  0  0  0
   14.6613    2.1550    0.0000 O   0  0  0  0  0  0  0  0  0  0  0  0
    7.7331    0.1550    0.0000 C   0  0  1  0  0  0  0  0  0  0  0  0
    8.5991    0.6550    0.0000 C   0  0  1  0  0  0  0  0  0  0  0  0
    9.4651    0.1550    0.0000 C   0  0  1  0  0  0  0  0  0  0  0  0
    7.7331   -0.8450    0.0000 C   0  0  0  0  0  0  0  0  0  0  0  0
    8.5991   -1.3450    0.0000 C   0  0  0  0  0  0  0  0  0  0  0  0
    9.4651   -0.8450    0.0000 C   0  0  0  0  0  0  0  0  0  0  0  0
    8.5991   -2.3450    0.0000 C   0  0  0  0  0  0  0  0  0  0  0  0
    6.0010    0.1550    0.0000 C   0  0  0  0  0  0  0  0  0  0  0  0
   11.1972    0.1550    0.0000 C   0  0  0  0  0  0  0  0  0  0  0  0
    5.1350    0.6550    0.0000 C   0  0  0  0  0  0  0  0  0  0  0  0
   12.0632    0.6550    0.0000 C   0  0  0  0  0  0  0  0  0  0  0  0
    5.1350    1.6550    0.0000 C   0  0  0  0  0  0  0  0  0  0  0  0
    4.2690    0.1550    0.0000 C   0  0  0  0  0  0  0  0  0  0  0  0
   12.9292    0.1550    0.0000 C   0  0  0  0  0  0  0  0  0  0  0  0
   12.0632    1.6550    0.0000 C   0  0  0  0  0  0  0  0  0  0  0  0
    3.4030    0.6550    0.0000 C   0  0  0  0  0  0  0  0  0  0  0  0
    4.2690    2.1550    0.0000 C   0  0  0  0  0  0  0  0  0  0  0  0
   12.9292    2.1550    0.0000 C   0  0  0  0  0  0  0  0  0  0  0  0
   13.7953    0.6550    0.0000 C   0  0  0  0  0  0  0  0  0  0  0  0
    3.4030    1.6550    0.0000 C   0  0  0  0  0  0  0  0  0  0  0  0
   13.7953    1.6550    0.0000 C   0  0  0  0  0  0  0  0  0  0  0  0
    7.7331    0.7750    0.0000 H   0  0  0  0  0  0  0  0  0  0  0  0
    8.0622    0.9650    0.0000 H   0  0  0  0  0  0  0  0  0  0  0  0
   10.0021   -0.1550    0.0000 H   0  0  0  0  0  0  0  0  0  0  0  0
    7.1225   -0.7373    0.0000 H   0  0  0  0  0  0  0  0  0  0  0  0
    7.5210   -1.4276    0.0000 H   0  0  0  0  0  0  0  0  0  0  0  0
   10.0021   -1.1550    0.0000 H   0  0  0  0  0  0  0  0  0  0  0  0
    9.1360    1.9650    0.0000 H   0  0  0  0  0  0  0  0  0  0  0  0
    7.7331   -3.4650    0.0000 H   0  0  0  0  0  0  0  0  0  0  0  0
    5.6720    1.9650    0.0000 H   0  0  0  0  0  0  0  0  0  0  0  0
    4.2690   -0.4650    0.0000 H   0  0  0  0  0  0  0  0  0  0  0  0
   12.9292   -0.4650    0.0000 H   0  0  0  0  0  0  0  0  0  0  0  0
   11.5263    1.9650    0.0000 H   0  0  0  0  0  0  0  0  0  0  0  0
    2.5369   -0.4650    0.0000 H   0  0  0  0  0  0  0  0  0  0  0  0
    4.8059    3.4650    0.0000 H   0  0  0  0  0  0  0  0  0  0  0  0
   12.3923    3.4650    0.0000 H   0  0  0  0  0  0  0  0  0  0  0  0
   14.6613   -0.4650    0.0000 H   0  0  0  0  0  0  0  0  0  0  0  0
    2.0000    1.8450    0.0000 H   0  0  0  0  0  0  0  0  0  0  0  0
   15.1982    1.8450    0.0000 H   0  0  0  0  0  0  0  0  0  0  0  0
 14  1  1  1  0  0  0
  1 21  1  0  0  0  0
 16  2  1  6  0  0  0
  2 22  1  0  0  0  0
 15  3  1  6  0  0  0
  3 41  1  0  0  0  0
  4 20  1  0  0  0  0
  4 42  1  0  0  0  0
  5 20  2  0  0  0  0
  6 21  2  0  0  0  0
  7 22  2  0  0  0  0
  8 29  1  0  0  0  0
  8 47  1  0  0  0  0
  9 30  1  0  0  0  0
  9 48  1  0  0  0  0
 10 31  1  0  0  0  0
 10 49  1  0  0  0  0
 11 32  1  0  0  0  0
 11 50  1  0  0  0  0
 12 33  1  0  0  0  0
 12 51  1  0  0  0  0
 13 34  1  0  0  0  0
 13 52  1  0  0  0  0
 14 15  1  0  0  0  0
 14 17  1  0  0  0  0
 14 35  1  0  0  0  0
 15 16  1  0  0  0  0
 15 36  1  0  0  0  0
 16 19  1  0  0  0  0
 16 37  1  0  0  0  0
 17 18  1  0  0  0  0
 17 38  1  0  0  0  0
 17 39  1  0  0  0  0
 18 19  2  0  0  0  0
 18 20  1  0  0  0  0
 19 40  1  0  0  0  0
 21 23  1  0  0  0  0
 22 24  1  0  0  0  0
 23 25  2  0  0  0  0
 23 26  1  0  0  0  0
 24 27  2  0  0  0  0
 24 28  1  0  0  0  0
 25 30  1  0  0  0  0
 25 43  1  0  0  0  0
 26 29  2  0  0  0  0
 26 44  1  0  0  0  0
 27 32  1  0  0  0  0
 27 45  1  0  0  0  0
 28 31  2  0  0  0  0
 28 46  1  0  0  0  0
 29 33  1  0  0  0  0
 30 33  2  0  0  0  0
 31 34  1  0  0  0  0
 32 34  2  0  0  0  0
M  END
> <PUBCHEM_COMPOUND_CID>
452239

> <PUBCHEM_COMPOUND_CANONICALIZED>
1

> <PUBCHEM_CACTVS_COMPLEXITY>
788

> <PUBCHEM_CACTVS_HBOND_ACCEPTOR>
13

> <PUBCHEM_CACTVS_HBOND_DONOR>
8

> <PUBCHEM_CACTVS_ROTATABLE_BOND>
7

> <PUBCHEM_CACTVS_SUBSKEYS>
AAADceB4PAAAAAAAAAAAAAAAAAAAAAAAAAAwYIAAAAAAAAABQAAAGgAACAAADBSgmAIwDoAABgCIAiDSCAACAAAkIAAAiAEGiMgJNzKCNRqCcQElwBULuYfK7DzOIAABCAAAQABAAAIQAACAAAAAAAAAAA==

> <PUBCHEM_IUPAC_OPENEYE_NAME>
(3R,4S,5R)-4-hydroxy-3,5-bis[(3,4,5-trihydroxybenzoyl)oxy]cyclohexene-1-carboxylic acid

> <PUBCHEM_IUPAC_CAS_NAME>
(3R,4S,5R)-4-hydroxy-3,5-bis[oxo-(3,4,5-trihydroxyphenyl)methoxy]-1-cyclohexenecarboxylic acid

> <PUBCHEM_IUPAC_NAME_MARKUP>
(3<I>R</I>,4<I>S</I>,5<I>R</I>)-4-hydroxy-3,5-bis[(3,4,5-trihydroxybenzoyl)oxy]cyclohexene-1-carboxylic acid

> <PUBCHEM_IUPAC_NAME>
(3R,4S,5R)-4-hydroxy-3,5-bis[(3,4,5-trihydroxybenzoyl)oxy]cyclohexene-1-carboxylic acid

> <PUBCHEM_IUPAC_SYSTEMATIC_NAME>
(3R,4S,5R)-4-oxidanyl-3,5-bis[[3,4,5-tris(oxidanyl)phenyl]carbonyloxy]cyclohexene-1-carboxylic acid

> <PUBCHEM_IUPAC_TRADITIONAL_NAME>
(3R,4S,5R)-3,5-digalloyloxy-4-hydroxy-cyclohexene-1-carboxylic acid

> <PUBCHEM_IUPAC_INCHI>
InChI=1S/C21H18O13/c22-10-1-8(2-11(23)16(10)26)20(31)33-14-5-7(19(29)30)6-15(18(14)28)34-21(32)9-3-12(24)17(27)13(25)4-9/h1-5,14-15,18,22-28H,6H2,(H,29,30)/t14-,15-,18-/m1/s1

> <PUBCHEM_IUPAC_INCHIKEY>
GASRJYBPBZZTBO-IIDMSEBBSA-N

> <PUBCHEM_XLOGP3_AA>
0.6

> <PUBCHEM_EXACT_MASS>
478.07474062

> <PUBCHEM_MOLECULAR_FORMULA>
C21H18O13

> <PUBCHEM_MOLECULAR_WEIGHT>
478.4

> <PUBCHEM_SMILES>
C1[C@H]([C@@H]([C@@H](C=C1C(=O)O)OC(=O)C2=CC(=C(C(=C2)O)O)O)O)OC(=O)C3=CC(=C(C(=C3)O)O)O

> <PUBCHEM_OPENEYE_CAN_SMILES>
C1C(C(C(C=C1C(=O)O)OC(=O)C2=CC(=C(C(=C2)O)O)O)O)OC(=O)C3=CC(=C(C(=C3)O)O)O

> <PUBCHEM_OPENEYE_ISO_SMILES>
C1[C@H]([C@@H]([C@@H](C=C1C(=O)O)OC(=O)C2=CC(=C(C(=C2)O)O)O)O)OC(=O)C3=CC(=C(C(=C3)O)O)O

> <PUBCHEM_CACTVS_TPSA>
232

> <PUBCHEM_MONOISOTOPIC_WEIGHT>
478.07474062

> <PUBCHEM_TOTAL_CHARGE>
0

> <PUBCHEM_HEAVY_ATOM_COUNT>
34

> <PUBCHEM_ATOM_DEF_STEREO_COUNT>
3

> <PUBCHEM_ATOM_UDEF_STEREO_COUNT>
0

> <PUBCHEM_BOND_DEF_STEREO_COUNT>
0

> <PUBCHEM_BOND_UDEF_STEREO_COUNT>
0

> <PUBCHEM_ISOTOPIC_ATOM_COUNT>
0

> <PUBCHEM_COMPONENT_COUNT>
1

> <PUBCHEM_CACTVS_TAUTO_COUNT>
-1

> <PUBCHEM_COORDINATE_TYPE>
1
5
255

> <PUBCHEM_BONDANNOTATIONS>
14  1  5
16  2  6
23  25  8
23  26  8
24  27  8
24  28  8
25  30  8
26  29  8
27  32  8
28  31  8
29  33  8
15  3  6
30  33  8
31  34  8
32  34  8

$$$$
