44138049
  -OEChem-03192523192D

 33 35  0     0  0  0  0  0  0999 V2000
    2.0000    0.0172    0.0000 Cl  0  0  0  0  0  0  0  0  0  0  0  0
    3.7254   -2.9972    0.0000 Cl  0  0  0  0  0  0  0  0  0  0  0  0
    2.0000    2.0172    0.0000 O   0  0  0  0  0  0  0  0  0  0  0  0
    6.3981    0.4964    0.0000 N   0  0  0  0  0  0  0  0  0  0  0  0
    4.5981    1.5172    0.0000 C   0  0  0  0  0  0  0  0  0  0  0  0
    5.4920    2.0519    0.0000 C   0  0  0  0  0  0  0  0  0  0  0  0
    4.5981    0.5172    0.0000 C   0  0  0  0  0  0  0  0  0  0  0  0
    6.3981    1.5380    0.0000 C   0  0  0  0  0  0  0  0  0  0  0  0
    5.4920   -0.0174    0.0000 C   0  0  0  0  0  0  0  0  0  0  0  0
    3.7320    2.0172    0.0000 C   0  0  0  0  0  0  0  0  0  0  0  0
    3.7320    0.0172    0.0000 C   0  0  0  0  0  0  0  0  0  0  0  0
    5.4804   -1.0174    0.0000 C   0  0  0  0  0  0  0  0  0  0  0  0
    2.8660    1.5172    0.0000 C   0  0  0  0  0  0  0  0  0  0  0  0
    2.8660    0.5172    0.0000 C   0  0  0  0  0  0  0  0  0  0  0  0
    4.6087   -1.5073    0.0000 C   0  0  0  0  0  0  0  0  0  0  0  0
    6.3406   -1.5273    0.0000 C   0  0  0  0  0  0  0  0  0  0  0  0
    4.5971   -2.5072    0.0000 C   0  0  0  0  0  0  0  0  0  0  0  0
    6.3291   -2.5273    0.0000 C   0  0  0  0  0  0  0  0  0  0  0  0
    5.4573   -3.0172    0.0000 C   0  0  0  0  0  0  0  0  0  0  0  0
    2.0000    3.0172    0.0000 C   0  0  0  0  0  0  0  0  0  0  0  0
    5.8856    2.5309    0.0000 H   0  0  0  0  0  0  0  0  0  0  0  0
    5.0874    2.5217    0.0000 H   0  0  0  0  0  0  0  0  0  0  0  0
    7.0089    1.4320    0.0000 H   0  0  0  0  0  0  0  0  0  0  0  0
    6.6071    2.1217    0.0000 H   0  0  0  0  0  0  0  0  0  0  0  0
    3.7320    2.6372    0.0000 H   0  0  0  0  0  0  0  0  0  0  0  0
    3.7320   -0.6028    0.0000 H   0  0  0  0  0  0  0  0  0  0  0  0
    4.0754   -1.1911    0.0000 H   0  0  0  0  0  0  0  0  0  0  0  0
    6.8811   -1.2236    0.0000 H   0  0  0  0  0  0  0  0  0  0  0  0
    6.8624   -2.8435    0.0000 H   0  0  0  0  0  0  0  0  0  0  0  0
    5.4502   -3.6372    0.0000 H   0  0  0  0  0  0  0  0  0  0  0  0
    2.6200    3.0172    0.0000 H   0  0  0  0  0  0  0  0  0  0  0  0
    2.0000    3.6372    0.0000 H   0  0  0  0  0  0  0  0  0  0  0  0
    1.3800    3.0172    0.0000 H   0  0  0  0  0  0  0  0  0  0  0  0
  1 14  1  0  0  0  0
  2 17  1  0  0  0  0
  3 13  1  0  0  0  0
  3 20  1  0  0  0  0
  4  8  1  0  0  0  0
  4  9  2  0  0  0  0
  5  6  1  0  0  0  0
  5  7  1  0  0  0  0
  5 10  2  0  0  0  0
  6  8  1  0  0  0  0
  6 21  1  0  0  0  0
  6 22  1  0  0  0  0
  7  9  1  0  0  0  0
  7 11  2  0  0  0  0
  8 23  1  0  0  0  0
  8 24  1  0  0  0  0
  9 12  1  0  0  0  0
 10 13  1  0  0  0  0
 10 25  1  0  0  0  0
 11 14  1  0  0  0  0
 11 26  1  0  0  0  0
 12 15  2  0  0  0  0
 12 16  1  0  0  0  0
 13 14  2  0  0  0  0
 15 17  1  0  0  0  0
 15 27  1  0  0  0  0
 16 18  2  0  0  0  0
 16 28  1  0  0  0  0
 17 19  2  0  0  0  0
 18 19  1  0  0  0  0
 18 29  1  0  0  0  0
 19 30  1  0  0  0  0
 20 31  1  0  0  0  0
 20 32  1  0  0  0  0
 20 33  1  0  0  0  0
M  END
> <PUBCHEM_COMPOUND_CID>
44138049

> <PUBCHEM_COMPOUND_CANONICALIZED>
1

> <PUBCHEM_CACTVS_COMPLEXITY>
373

> <PUBCHEM_CACTVS_HBOND_ACCEPTOR>
2

> <PUBCHEM_CACTVS_HBOND_DONOR>
0

> <PUBCHEM_CACTVS_ROTATABLE_BOND>
2

> <PUBCHEM_CACTVS_SUBSKEYS>
AAADccB6IAAGAAAAAAAAAAAAAAAAAAAAAAAwYIAAAAAAAACBQAAAHgIAAAAADA7BmCYyBoIABACgAyBiBAACCAAgJUAIiAAmC5gMJqOFsxuAMCAkwBEIqAeQ0PAOpAABIAAQCABIAAJAACAQAAAAAAAAAA==

> <PUBCHEM_IUPAC_OPENEYE_NAME>
7-chloro-1-(3-chlorophenyl)-6-methoxy-3,4-dihydroisoquinoline

> <PUBCHEM_IUPAC_CAS_NAME>
7-chloro-1-(3-chlorophenyl)-6-methoxy-3,4-dihydroisoquinoline

> <PUBCHEM_IUPAC_NAME_MARKUP>
7-chloro-1-(3-chlorophenyl)-6-methoxy-3,4-dihydroisoquinoline

> <PUBCHEM_IUPAC_NAME>
7-chloro-1-(3-chlorophenyl)-6-methoxy-3,4-dihydroisoquinoline

> <PUBCHEM_IUPAC_SYSTEMATIC_NAME>
7-chloranyl-1-(3-chlorophenyl)-6-methoxy-3,4-dihydroisoquinoline

> <PUBCHEM_IUPAC_TRADITIONAL_NAME>
7-chloro-1-(3-chlorophenyl)-6-methoxy-3,4-dihydroisoquinoline

> <PUBCHEM_IUPAC_INCHI>
InChI=1S/C16H13Cl2NO/c1-20-15-8-10-5-6-19-16(13(10)9-14(15)18)11-3-2-4-12(17)7-11/h2-4,7-9H,5-6H2,1H3

> <PUBCHEM_IUPAC_INCHIKEY>
FRZUSJCWOONEQS-UHFFFAOYSA-N

> <PUBCHEM_XLOGP3_AA>
4.5

> <PUBCHEM_EXACT_MASS>
305.0374194

> <PUBCHEM_MOLECULAR_FORMULA>
C16H13Cl2NO

> <PUBCHEM_MOLECULAR_WEIGHT>
306.2

> <PUBCHEM_SMILES>
COC1=C(C=C2C(=C1)CCN=C2C3=CC(=CC=C3)Cl)Cl

> <PUBCHEM_OPENEYE_CAN_SMILES>
COC1=C(C=C2C(=C1)CCN=C2C3=CC(=CC=C3)Cl)Cl

> <PUBCHEM_OPENEYE_ISO_SMILES>
COC1=C(C=C2C(=C1)CCN=C2C3=CC(=CC=C3)Cl)Cl

> <PUBCHEM_CACTVS_TPSA>
21.6

> <PUBCHEM_MONOISOTOPIC_WEIGHT>
305.0374194

> <PUBCHEM_TOTAL_CHARGE>
0

> <PUBCHEM_HEAVY_ATOM_COUNT>
20

> <PUBCHEM_ATOM_DEF_STEREO_COUNT>
0

> <PUBCHEM_ATOM_UDEF_STEREO_COUNT>
0

> <PUBCHEM_BOND_DEF_STEREO_COUNT>
0

> <PUBCHEM_BOND_UDEF_STEREO_COUNT>
0

> <PUBCHEM_ISOTOPIC_ATOM_COUNT>
0

> <PUBCHEM_COMPONENT_COUNT>
1

> <PUBCHEM_CACTVS_TAUTO_COUNT>
-1

> <PUBCHEM_COORDINATE_TYPE>
1
5
255

> <PUBCHEM_BONDANNOTATIONS>
10  13  8
11  14  8
12  15  8
12  16  8
13  14  8
15  17  8
16  18  8
17  19  8
18  19  8
5  10  8
5  7  8
7  11  8

$$$$
