24905287
  -OEChem-03192523472D

 38 40  0     0  0  0  0  0  0999 V2000
    7.2566    2.0646    0.0000 O   0  0  0  0  0  0  0  0  0  0  0  0
    4.6783   -1.8584    0.0000 N   0  0  0  0  0  0  0  0  0  0  0  0
    5.2619   -1.0536    0.0000 N   0  0  0  0  0  0  0  0  0  0  0  0
    2.8660   -2.0536    0.0000 N   0  0  0  0  0  0  0  0  0  0  0  0
    2.0000   -0.5536    0.0000 N   0  0  0  0  0  0  0  0  0  0  0  0
    2.8660    0.9464    0.0000 N   0  0  0  0  0  0  0  0  0  0  0  0
    4.9889   -2.8089    0.0000 C   0  0  0  0  0  0  0  0  0  0  0  0
    3.7320   -1.5536    0.0000 C   0  0  0  0  0  0  0  0  0  0  0  0
    3.7320   -0.5536    0.0000 C   0  0  0  0  0  0  0  0  0  0  0  0
    4.6783   -0.2489    0.0000 C   0  0  0  0  0  0  0  0  0  0  0  0
    4.9889    0.7016    0.0000 C   0  0  0  0  0  0  0  0  0  0  0  0
    5.9674   -3.0151    0.0000 C   0  0  0  0  0  0  0  0  0  0  0  0
    4.3211   -3.5532    0.0000 C   0  0  0  0  0  0  0  0  0  0  0  0
    2.8660   -0.0536    0.0000 C   0  0  0  0  0  0  0  0  0  0  0  0
    5.9674    0.9078    0.0000 C   0  0  0  0  0  0  0  0  0  0  0  0
    4.3211    1.4459    0.0000 C   0  0  0  0  0  0  0  0  0  0  0  0
    5.6103    2.6027    0.0000 C   0  0  0  0  0  0  0  0  0  0  0  0
    6.2781    1.8584    0.0000 C   0  0  0  0  0  0  0  0  0  0  0  0
    4.6318    2.3965    0.0000 C   0  0  0  0  0  0  0  0  0  0  0  0
    2.0000   -1.5536    0.0000 C   0  0  0  0  0  0  0  0  0  0  0  0
    5.9209    3.5532    0.0000 C   0  0  0  0  0  0  0  0  0  0  0  0
    5.1815   -3.3982    0.0000 H   0  0  0  0  0  0  0  0  0  0  0  0
    5.8396   -3.6218    0.0000 H   0  0  0  0  0  0  0  0  0  0  0  0
    6.5741   -3.1430    0.0000 H   0  0  0  0  0  0  0  0  0  0  0  0
    6.0953   -2.4084    0.0000 H   0  0  0  0  0  0  0  0  0  0  0  0
    3.8596   -3.1391    0.0000 H   0  0  0  0  0  0  0  0  0  0  0  0
    3.9070   -4.0146    0.0000 H   0  0  0  0  0  0  0  0  0  0  0  0
    4.7826   -3.9672    0.0000 H   0  0  0  0  0  0  0  0  0  0  0  0
    6.3815    0.4464    0.0000 H   0  0  0  0  0  0  0  0  0  0  0  0
    3.7144    1.3181    0.0000 H   0  0  0  0  0  0  0  0  0  0  0  0
    4.2177    2.8579    0.0000 H   0  0  0  0  0  0  0  0  0  0  0  0
    1.4631   -1.8636    0.0000 H   0  0  0  0  0  0  0  0  0  0  0  0
    2.3291    1.2564    0.0000 H   0  0  0  0  0  0  0  0  0  0  0  0
    3.4030    1.2564    0.0000 H   0  0  0  0  0  0  0  0  0  0  0  0
    6.5102    3.3606    0.0000 H   0  0  0  0  0  0  0  0  0  0  0  0
    6.1135    4.1425    0.0000 H   0  0  0  0  0  0  0  0  0  0  0  0
    5.3316    3.7458    0.0000 H   0  0  0  0  0  0  0  0  0  0  0  0
    7.6707    1.6031    0.0000 H   0  0  0  0  0  0  0  0  0  0  0  0
  1 18  1  0  0  0  0
  1 38  1  0  0  0  0
  2  3  1  0  0  0  0
  2  7  1  0  0  0  0
  2  8  1  0  0  0  0
  3 10  2  0  0  0  0
  4  8  2  0  0  0  0
  4 20  1  0  0  0  0
  5 14  1  0  0  0  0
  5 20  2  0  0  0  0
  6 14  1  0  0  0  0
  6 33  1  0  0  0  0
  6 34  1  0  0  0  0
  7 12  1  0  0  0  0
  7 13  1  0  0  0  0
  7 22  1  0  0  0  0
  8  9  1  0  0  0  0
  9 10  1  0  0  0  0
  9 14  2  0  0  0  0
 10 11  1  0  0  0  0
 11 15  2  0  0  0  0
 11 16  1  0  0  0  0
 12 23  1  0  0  0  0
 12 24  1  0  0  0  0
 12 25  1  0  0  0  0
 13 26  1  0  0  0  0
 13 27  1  0  0  0  0
 13 28  1  0  0  0  0
 15 18  1  0  0  0  0
 15 29  1  0  0  0  0
 16 19  2  0  0  0  0
 16 30  1  0  0  0  0
 17 18  2  0  0  0  0
 17 19  1  0  0  0  0
 17 21  1  0  0  0  0
 19 31  1  0  0  0  0
 20 32  1  0  0  0  0
 21 35  1  0  0  0  0
 21 36  1  0  0  0  0
 21 37  1  0  0  0  0
M  END
> <PUBCHEM_COMPOUND_CID>
24905287

> <PUBCHEM_COMPOUND_CANONICALIZED>
1

> <PUBCHEM_CACTVS_COMPLEXITY>
366

> <PUBCHEM_CACTVS_HBOND_ACCEPTOR>
5

> <PUBCHEM_CACTVS_HBOND_DONOR>
2

> <PUBCHEM_CACTVS_ROTATABLE_BOND>
2

> <PUBCHEM_CACTVS_SUBSKEYS>
AAADceBzoAAAAAAAAAAAAAAAAAAAAWAAAAA8QAAAAAAAAFgB/AAAHgAYCAAADCzBnwQ3tt5IEgCiAyZjZACShCsxoKAd2CAuTJiILqLC2dOE9AhsyBPI2CewwPAOQAABAAAIAACAAAIAABAAAAAAAAAAAA==

> <PUBCHEM_IUPAC_OPENEYE_NAME>
5-(4-amino-1-isopropyl-pyrazolo[3,4-d]pyrimidin-3-yl)-2-methyl-phenol

> <PUBCHEM_IUPAC_CAS_NAME>
5-(4-amino-1-propan-2-yl-3-pyrazolo[3,4-d]pyrimidinyl)-2-methylphenol

> <PUBCHEM_IUPAC_NAME_MARKUP>
5-(4-amino-1-propan-2-ylpyrazolo[3,4-d]pyrimidin-3-yl)-2-methylphenol

> <PUBCHEM_IUPAC_NAME>
5-(4-amino-1-propan-2-ylpyrazolo[3,4-d]pyrimidin-3-yl)-2-methylphenol

> <PUBCHEM_IUPAC_SYSTEMATIC_NAME>
5-(4-azanyl-1-propan-2-yl-pyrazolo[3,4-d]pyrimidin-3-yl)-2-methyl-phenol

> <PUBCHEM_IUPAC_TRADITIONAL_NAME>
5-(4-amino-1-isopropyl-pyrazolo[3,4-d]pyrimidin-3-yl)-2-methyl-phenol

> <PUBCHEM_IUPAC_INCHI>
InChI=1S/C15H17N5O/c1-8(2)20-15-12(14(16)17-7-18-15)13(19-20)10-5-4-9(3)11(21)6-10/h4-8,21H,1-3H3,(H2,16,17,18)

> <PUBCHEM_IUPAC_INCHIKEY>
BTIKYUUNPGWLNG-UHFFFAOYSA-N

> <PUBCHEM_XLOGP3_AA>
2.2

> <PUBCHEM_EXACT_MASS>
283.14331018

> <PUBCHEM_MOLECULAR_FORMULA>
C15H17N5O

> <PUBCHEM_MOLECULAR_WEIGHT>
283.33

> <PUBCHEM_SMILES>
CC1=C(C=C(C=C1)C2=NN(C3=NC=NC(=C23)N)C(C)C)O

> <PUBCHEM_OPENEYE_CAN_SMILES>
CC1=C(C=C(C=C1)C2=NN(C3=NC=NC(=C23)N)C(C)C)O

> <PUBCHEM_OPENEYE_ISO_SMILES>
CC1=C(C=C(C=C1)C2=NN(C3=NC=NC(=C23)N)C(C)C)O

> <PUBCHEM_CACTVS_TPSA>
89.9

> <PUBCHEM_MONOISOTOPIC_WEIGHT>
283.14331018

> <PUBCHEM_TOTAL_CHARGE>
0

> <PUBCHEM_HEAVY_ATOM_COUNT>
21

> <PUBCHEM_ATOM_DEF_STEREO_COUNT>
0

> <PUBCHEM_ATOM_UDEF_STEREO_COUNT>
0

> <PUBCHEM_BOND_DEF_STEREO_COUNT>
0

> <PUBCHEM_BOND_UDEF_STEREO_COUNT>
0

> <PUBCHEM_ISOTOPIC_ATOM_COUNT>
0

> <PUBCHEM_COMPONENT_COUNT>
1

> <PUBCHEM_CACTVS_TAUTO_COUNT>
-1

> <PUBCHEM_COORDINATE_TYPE>
1
5
255

> <PUBCHEM_BONDANNOTATIONS>
11  15  8
11  16  8
15  18  8
16  19  8
17  18  8
17  19  8
2  3  8
2  8  8
3  10  8
4  20  8
4  8  8
5  14  8
5  20  8
8  9  8
9  10  8
9  14  8

$$$$
