2797246
  -OEChem-03202501472D

 46 48  0     0  0  0  0  0  0999 V2000
    6.9081   -1.5000    0.0000 S   0  0  0  0  0  0  0  0  0  0  0  0
   11.2382   -2.0000    0.0000 F   0  0  0  0  0  0  0  0  0  0  0  0
    2.3100    0.0000    0.0000 O   0  0  0  0  0  0  0  0  0  0  0  0
    4.8100    0.8660    0.0000 O   0  0  0  0  0  0  0  0  0  0  0  0
    5.1760   -0.5000    0.0000 N   0  0  0  0  0  0  0  0  0  0  0  0
    6.0420    0.0000    0.0000 N   0  0  0  0  0  0  0  0  0  0  0  0
    7.7741    0.0000    0.0000 N   0  0  0  0  0  0  0  0  0  0  0  0
    3.3100    0.0000    0.0000 C   0  0  0  0  0  0  0  0  0  0  0  0
    3.3100   -1.0000    0.0000 C   0  0  0  0  0  0  0  0  0  0  0  0
    3.3100    1.0000    0.0000 C   0  0  0  0  0  0  0  0  0  0  0  0
    4.3100    0.0000    0.0000 C   0  0  0  0  0  0  0  0  0  0  0  0
    4.1760   -1.5000    0.0000 C   0  0  0  0  0  0  0  0  0  0  0  0
    2.4440    1.5000    0.0000 C   0  0  0  0  0  0  0  0  0  0  0  0
    2.4440   -1.5000    0.0000 C   0  0  0  0  0  0  0  0  0  0  0  0
    4.1760    1.5000    0.0000 C   0  0  0  0  0  0  0  0  0  0  0  0
    4.1760   -2.5000    0.0000 C   0  0  0  0  0  0  0  0  0  0  0  0
    2.4440    2.5000    0.0000 C   0  0  0  0  0  0  0  0  0  0  0  0
    2.4440   -2.5000    0.0000 C   0  0  0  0  0  0  0  0  0  0  0  0
    4.1760    2.5000    0.0000 C   0  0  0  0  0  0  0  0  0  0  0  0
    3.3100   -3.0000    0.0000 C   0  0  0  0  0  0  0  0  0  0  0  0
    3.3100    3.0000    0.0000 C   0  0  0  0  0  0  0  0  0  0  0  0
    6.9081   -0.5000    0.0000 C   0  0  0  0  0  0  0  0  0  0  0  0
    8.6401   -0.5000    0.0000 C   0  0  0  0  0  0  0  0  0  0  0  0
    9.5062   -0.0000    0.0000 C   0  0  0  0  0  0  0  0  0  0  0  0
    8.6401   -1.5000    0.0000 C   0  0  0  0  0  0  0  0  0  0  0  0
   10.3722   -0.5000    0.0000 C   0  0  0  0  0  0  0  0  0  0  0  0
    9.5062   -2.0000    0.0000 C   0  0  0  0  0  0  0  0  0  0  0  0
   10.3722   -1.5000    0.0000 C   0  0  0  0  0  0  0  0  0  0  0  0
    4.7130   -1.1900    0.0000 H   0  0  0  0  0  0  0  0  0  0  0  0
    1.9070    1.1900    0.0000 H   0  0  0  0  0  0  0  0  0  0  0  0
    1.9070   -1.1900    0.0000 H   0  0  0  0  0  0  0  0  0  0  0  0
    4.7130    1.1900    0.0000 H   0  0  0  0  0  0  0  0  0  0  0  0
    2.0000    0.5369    0.0000 H   0  0  0  0  0  0  0  0  0  0  0  0
    5.1760   -1.1200    0.0000 H   0  0  0  0  0  0  0  0  0  0  0  0
    4.7130   -2.8100    0.0000 H   0  0  0  0  0  0  0  0  0  0  0  0
    1.9070    2.8100    0.0000 H   0  0  0  0  0  0  0  0  0  0  0  0
    1.9070   -2.8100    0.0000 H   0  0  0  0  0  0  0  0  0  0  0  0
    4.7130    2.8100    0.0000 H   0  0  0  0  0  0  0  0  0  0  0  0
    3.3100   -3.6200    0.0000 H   0  0  0  0  0  0  0  0  0  0  0  0
    3.3100    3.6200    0.0000 H   0  0  0  0  0  0  0  0  0  0  0  0
    6.0420    0.6200    0.0000 H   0  0  0  0  0  0  0  0  0  0  0  0
    7.7741    0.6200    0.0000 H   0  0  0  0  0  0  0  0  0  0  0  0
    9.5062    0.6200    0.0000 H   0  0  0  0  0  0  0  0  0  0  0  0
    8.1032   -1.8100    0.0000 H   0  0  0  0  0  0  0  0  0  0  0  0
   10.9091   -0.1900    0.0000 H   0  0  0  0  0  0  0  0  0  0  0  0
    9.5062   -2.6200    0.0000 H   0  0  0  0  0  0  0  0  0  0  0  0
  1 22  2  0  0  0  0
  2 28  1  0  0  0  0
  3  8  1  0  0  0  0
  3 33  1  0  0  0  0
  4 11  2  0  0  0  0
  5  6  1  0  0  0  0
  5 11  1  0  0  0  0
  5 34  1  0  0  0  0
  6 22  1  0  0  0  0
  6 41  1  0  0  0  0
  7 22  1  0  0  0  0
  7 23  1  0  0  0  0
  7 42  1  0  0  0  0
  8  9  1  0  0  0  0
  8 10  1  0  0  0  0
  8 11  1  0  0  0  0
  9 12  2  0  0  0  0
  9 14  1  0  0  0  0
 10 13  2  0  0  0  0
 10 15  1  0  0  0  0
 12 16  1  0  0  0  0
 12 29  1  0  0  0  0
 13 17  1  0  0  0  0
 13 30  1  0  0  0  0
 14 18  2  0  0  0  0
 14 31  1  0  0  0  0
 15 19  2  0  0  0  0
 15 32  1  0  0  0  0
 16 20  2  0  0  0  0
 16 35  1  0  0  0  0
 17 21  2  0  0  0  0
 17 36  1  0  0  0  0
 18 20  1  0  0  0  0
 18 37  1  0  0  0  0
 19 21  1  0  0  0  0
 19 38  1  0  0  0  0
 20 39  1  0  0  0  0
 21 40  1  0  0  0  0
 23 24  2  0  0  0  0
 23 25  1  0  0  0  0
 24 26  1  0  0  0  0
 24 43  1  0  0  0  0
 25 27  2  0  0  0  0
 25 44  1  0  0  0  0
 26 28  2  0  0  0  0
 26 45  1  0  0  0  0
 27 28  1  0  0  0  0
 27 46  1  0  0  0  0
M  END
> <PUBCHEM_COMPOUND_CID>
2797246

> <PUBCHEM_COMPOUND_CANONICALIZED>
1

> <PUBCHEM_CACTVS_COMPLEXITY>
510

> <PUBCHEM_CACTVS_HBOND_ACCEPTOR>
4

> <PUBCHEM_CACTVS_HBOND_DONOR>
4

> <PUBCHEM_CACTVS_ROTATABLE_BOND>
4

> <PUBCHEM_CACTVS_SUBSKEYS>
AAADceB7MQBAAAAAAAAAAAAAAAAAAAAAAAAwYMAAAAAAAAABUAAAHwQYCAAADEyBmAgxwILiAgCMAiVSUAKCAAAhAgseqAFAbIiKJjLAlZGEcAh00ANI2CeYyOCOgAAAAAAAAAAAAAAAAAAAAAAAAAAAAA==

> <PUBCHEM_IUPAC_OPENEYE_NAME>
1-(4-fluorophenyl)-3-[(2-hydroxy-2,2-diphenyl-acetyl)amino]thiourea

> <PUBCHEM_IUPAC_CAS_NAME>
1-(4-fluorophenyl)-3-[(2-hydroxy-1-oxo-2,2-diphenylethyl)amino]thiourea

> <PUBCHEM_IUPAC_NAME_MARKUP>
1-(4-fluorophenyl)-3-[(2-hydroxy-2,2-diphenylacetyl)amino]thiourea

> <PUBCHEM_IUPAC_NAME>
1-(4-fluorophenyl)-3-[(2-hydroxy-2,2-diphenylacetyl)amino]thiourea

> <PUBCHEM_IUPAC_SYSTEMATIC_NAME>
1-(4-fluorophenyl)-3-[(2-oxidanyl-2,2-diphenyl-ethanoyl)amino]thiourea

> <PUBCHEM_IUPAC_TRADITIONAL_NAME>
1-(benziloylamino)-3-(4-fluorophenyl)thiourea

> <PUBCHEM_IUPAC_INCHI>
InChI=1S/C21H18FN3O2S/c22-17-11-13-18(14-12-17)23-20(28)25-24-19(26)21(27,15-7-3-1-4-8-15)16-9-5-2-6-10-16/h1-14,27H,(H,24,26)(H2,23,25,28)

> <PUBCHEM_IUPAC_INCHIKEY>
HSKVRPZJBMXFDX-UHFFFAOYSA-N

> <PUBCHEM_XLOGP3_AA>
3.7

> <PUBCHEM_EXACT_MASS>
395.11037616

> <PUBCHEM_MOLECULAR_FORMULA>
C21H18FN3O2S

> <PUBCHEM_MOLECULAR_WEIGHT>
395.5

> <PUBCHEM_SMILES>
C1=CC=C(C=C1)C(C2=CC=CC=C2)(C(=O)NNC(=S)NC3=CC=C(C=C3)F)O

> <PUBCHEM_OPENEYE_CAN_SMILES>
C1=CC=C(C=C1)C(C2=CC=CC=C2)(C(=O)NNC(=S)NC3=CC=C(C=C3)F)O

> <PUBCHEM_OPENEYE_ISO_SMILES>
C1=CC=C(C=C1)C(C2=CC=CC=C2)(C(=O)NNC(=S)NC3=CC=C(C=C3)F)O

> <PUBCHEM_CACTVS_TPSA>
105

> <PUBCHEM_MONOISOTOPIC_WEIGHT>
395.11037616

> <PUBCHEM_TOTAL_CHARGE>
0

> <PUBCHEM_HEAVY_ATOM_COUNT>
28

> <PUBCHEM_ATOM_DEF_STEREO_COUNT>
0

> <PUBCHEM_ATOM_UDEF_STEREO_COUNT>
0

> <PUBCHEM_BOND_DEF_STEREO_COUNT>
0

> <PUBCHEM_BOND_UDEF_STEREO_COUNT>
0

> <PUBCHEM_ISOTOPIC_ATOM_COUNT>
0

> <PUBCHEM_COMPONENT_COUNT>
1

> <PUBCHEM_CACTVS_TAUTO_COUNT>
-1

> <PUBCHEM_COORDINATE_TYPE>
1
5
255

> <PUBCHEM_BONDANNOTATIONS>
10  13  8
10  15  8
12  16  8
13  17  8
14  18  8
15  19  8
16  20  8
17  21  8
18  20  8
19  21  8
23  24  8
23  25  8
24  26  8
25  27  8
26  28  8
27  28  8
9  12  8
9  14  8

$$$$
