46880136
  -OEChem-03192523192D

 62 68  0     1  0  0  0  0  0999 V2000
    9.2673    5.2898    0.0000 O   0  0  0  0  0  0  0  0  0  0  0  0
    4.8767   -2.8284    0.0000 N   0  0  3  0  0  0  0  0  0  0  0  0
    2.5736   -5.0600    0.0000 N   0  0  3  0  0  0  0  0  0  0  0  0
    5.7428    1.6716    0.0000 N   0  0  0  0  0  0  0  0  0  0  0  0
    6.6890    1.3669    0.0000 N   0  0  0  0  0  0  0  0  0  0  0  0
    4.8767    3.1716    0.0000 N   0  0  0  0  0  0  0  0  0  0  0  0
   10.2726    2.1716    0.0000 N   0  0  0  0  0  0  0  0  0  0  0  0
    3.8828   -3.9451    0.0000 C   0  0  1  0  0  0  0  0  0  0  0  0
    4.0565   -4.9299    0.0000 C   0  0  1  0  0  0  0  0  0  0  0  0
    5.1394   -5.5091    0.0000 C   0  0  0  0  0  0  0  0  0  0  0  0
    5.5838   -3.5355    0.0000 C   0  0  0  0  0  0  0  0  0  0  0  0
    2.3999   -4.0752    0.0000 C   0  0  0  0  0  0  0  0  0  0  0  0
    4.8767   -1.8284    0.0000 C   0  0  0  0  0  0  0  0  0  0  0  0
    2.0000   -5.8791    0.0000 C   0  0  0  0  0  0  0  0  0  0  0  0
    4.0107   -1.3284    0.0000 C   0  0  0  0  0  0  0  0  0  0  0  0
    5.7428   -1.3284    0.0000 C   0  0  0  0  0  0  0  0  0  0  0  0
    4.0107   -0.3284    0.0000 C   0  0  0  0  0  0  0  0  0  0  0  0
    5.7428   -0.3284    0.0000 C   0  0  0  0  0  0  0  0  0  0  0  0
    4.8767    0.1716    0.0000 C   0  0  0  0  0  0  0  0  0  0  0  0
    4.8767    1.1716    0.0000 C   0  0  0  0  0  0  0  0  0  0  0  0
    4.0107    1.6716    0.0000 C   0  0  0  0  0  0  0  0  0  0  0  0
    5.7428    2.6716    0.0000 C   0  0  0  0  0  0  0  0  0  0  0  0
    6.6890    2.9763    0.0000 C   0  0  0  0  0  0  0  0  0  0  0  0
    7.2726    2.1716    0.0000 C   0  0  0  0  0  0  0  0  0  0  0  0
    4.0107    2.6716    0.0000 C   0  0  0  0  0  0  0  0  0  0  0  0
    6.9996    3.9268    0.0000 C   0  0  0  0  0  0  0  0  0  0  0  0
    8.2726    2.1716    0.0000 C   0  0  0  0  0  0  0  0  0  0  0  0
    7.9781    4.1331    0.0000 C   0  0  0  0  0  0  0  0  0  0  0  0
    6.3318    4.6711    0.0000 C   0  0  0  0  0  0  0  0  0  0  0  0
    8.7726    3.0376    0.0000 C   0  0  0  0  0  0  0  0  0  0  0  0
    8.7726    1.3056    0.0000 C   0  0  0  0  0  0  0  0  0  0  0  0
    8.2888    5.0836    0.0000 C   0  0  0  0  0  0  0  0  0  0  0  0
    6.6424    5.6217    0.0000 C   0  0  0  0  0  0  0  0  0  0  0  0
    7.6210    5.8279    0.0000 C   0  0  0  0  0  0  0  0  0  0  0  0
    9.7726    3.0376    0.0000 C   0  0  0  0  0  0  0  0  0  0  0  0
    9.7726    1.3056    0.0000 C   0  0  0  0  0  0  0  0  0  0  0  0
    3.7352   -3.1080    0.0000 H   0  0  0  0  0  0  0  0  0  0  0  0
    4.2041   -5.7670    0.0000 H   0  0  0  0  0  0  0  0  0  0  0  0
    5.0763   -6.1259    0.0000 H   0  0  0  0  0  0  0  0  0  0  0  0
    5.7339   -5.3334    0.0000 H   0  0  0  0  0  0  0  0  0  0  0  0
    6.0088   -3.9870    0.0000 H   0  0  0  0  0  0  0  0  0  0  0  0
    6.0288   -3.1038    0.0000 H   0  0  0  0  0  0  0  0  0  0  0  0
    2.3279   -3.4594    0.0000 H   0  0  0  0  0  0  0  0  0  0  0  0
    1.7865   -4.1651    0.0000 H   0  0  0  0  0  0  0  0  0  0  0  0
    1.4921   -5.5235    0.0000 H   0  0  0  0  0  0  0  0  0  0  0  0
    1.6444   -6.3870    0.0000 H   0  0  0  0  0  0  0  0  0  0  0  0
    2.5079   -6.2347    0.0000 H   0  0  0  0  0  0  0  0  0  0  0  0
    3.4738   -1.6384    0.0000 H   0  0  0  0  0  0  0  0  0  0  0  0
    6.2797   -1.6384    0.0000 H   0  0  0  0  0  0  0  0  0  0  0  0
    3.4738   -0.0184    0.0000 H   0  0  0  0  0  0  0  0  0  0  0  0
    6.2797   -0.0184    0.0000 H   0  0  0  0  0  0  0  0  0  0  0  0
    3.4738    1.3616    0.0000 H   0  0  0  0  0  0  0  0  0  0  0  0
    3.4738    2.9816    0.0000 H   0  0  0  0  0  0  0  0  0  0  0  0
    8.3922    3.6716    0.0000 H   0  0  0  0  0  0  0  0  0  0  0  0
    5.7251    4.5433    0.0000 H   0  0  0  0  0  0  0  0  0  0  0  0
    8.4626    3.5746    0.0000 H   0  0  0  0  0  0  0  0  0  0  0  0
    8.4626    0.7686    0.0000 H   0  0  0  0  0  0  0  0  0  0  0  0
    6.2284    6.0831    0.0000 H   0  0  0  0  0  0  0  0  0  0  0  0
    7.8136    6.4172    0.0000 H   0  0  0  0  0  0  0  0  0  0  0  0
   10.0826    3.5746    0.0000 H   0  0  0  0  0  0  0  0  0  0  0  0
   10.0826    0.7686    0.0000 H   0  0  0  0  0  0  0  0  0  0  0  0
    9.4599    5.8791    0.0000 H   0  0  0  0  0  0  0  0  0  0  0  0
  1 32  1  0  0  0  0
  1 62  1  0  0  0  0
  2  8  1  0  0  0  0
  2 11  1  0  0  0  0
  2 13  1  0  0  0  0
  3  9  1  0  0  0  0
  3 12  1  0  0  0  0
  3 14  1  0  0  0  0
  4  5  1  0  0  0  0
  4 20  1  0  0  0  0
  4 22  1  0  0  0  0
  5 24  2  0  0  0  0
  6 22  1  0  0  0  0
  6 25  2  0  0  0  0
  7 35  2  0  0  0  0
  7 36  1  0  0  0  0
  8 10  1  0  0  0  0
  8 12  1  0  0  0  0
  8 37  1  6  0  0  0
  9 10  1  0  0  0  0
  9 11  1  0  0  0  0
  9 38  1  1  0  0  0
 10 39  1  0  0  0  0
 10 40  1  0  0  0  0
 11 41  1  0  0  0  0
 11 42  1  0  0  0  0
 12 43  1  0  0  0  0
 12 44  1  0  0  0  0
 13 15  2  0  0  0  0
 13 16  1  0  0  0  0
 14 45  1  0  0  0  0
 14 46  1  0  0  0  0
 14 47  1  0  0  0  0
 15 17  1  0  0  0  0
 15 48  1  0  0  0  0
 16 18  2  0  0  0  0
 16 49  1  0  0  0  0
 17 19  2  0  0  0  0
 17 50  1  0  0  0  0
 18 19  1  0  0  0  0
 18 51  1  0  0  0  0
 19 20  1  0  0  0  0
 20 21  2  0  0  0  0
 21 25  1  0  0  0  0
 21 52  1  0  0  0  0
 22 23  2  0  0  0  0
 23 24  1  0  0  0  0
 23 26  1  0  0  0  0
 24 27  1  0  0  0  0
 25 53  1  0  0  0  0
 26 28  2  0  0  0  0
 26 29  1  0  0  0  0
 27 30  2  0  0  0  0
 27 31  1  0  0  0  0
 28 32  1  0  0  0  0
 28 54  1  0  0  0  0
 29 33  2  0  0  0  0
 29 55  1  0  0  0  0
 30 35  1  0  0  0  0
 30 56  1  0  0  0  0
 31 36  2  0  0  0  0
 31 57  1  0  0  0  0
 32 34  2  0  0  0  0
 33 34  1  0  0  0  0
 33 58  1  0  0  0  0
 34 59  1  0  0  0  0
 35 60  1  0  0  0  0
 36 61  1  0  0  0  0
M  END
> <PUBCHEM_COMPOUND_CID>
46880136

> <PUBCHEM_COMPOUND_CANONICALIZED>
1

> <PUBCHEM_CACTVS_COMPLEXITY>
754

> <PUBCHEM_CACTVS_HBOND_ACCEPTOR>
6

> <PUBCHEM_CACTVS_HBOND_DONOR>
1

> <PUBCHEM_CACTVS_ROTATABLE_BOND>
4

> <PUBCHEM_CACTVS_SUBSKEYS>
AAADceB7oAAAAAAAAAAAAAAAAAAAAWLFgAA8eLECAAAAAFgB/AAAHgAICAAADCzBnwQ/9p8IEgCiAzZnZACShCsxIqAd2CA+bJiIbuLC2dOU9AhsyBPI2CeQ0PMOiAABAAAAAAAQAAIAAAAAAAAAAAAAAA==

> <PUBCHEM_IUPAC_OPENEYE_NAME>
3-[7-[4-[(1S,4S)-5-methyl-2,5-diazabicyclo[2.2.1]heptan-2-yl]phenyl]-2-(4-pyridyl)pyrazolo[1,5-a]pyrimidin-3-yl]phenol

> <PUBCHEM_IUPAC_CAS_NAME>
3-[7-[4-[(1S,4S)-5-methyl-2,5-diazabicyclo[2.2.1]heptan-2-yl]phenyl]-2-pyridin-4-yl-3-pyrazolo[1,5-a]pyrimidinyl]phenol

> <PUBCHEM_IUPAC_NAME_MARKUP>
3-[7-[4-[(1<I>S</I>,4<I>S</I>)-5-methyl-2,5-diazabicyclo[2.2.1]heptan-2-yl]phenyl]-2-pyridin-4-ylpyrazolo[1,5-a]pyrimidin-3-yl]phenol

> <PUBCHEM_IUPAC_NAME>
3-[7-[4-[(1S,4S)-5-methyl-2,5-diazabicyclo[2.2.1]heptan-2-yl]phenyl]-2-pyridin-4-ylpyrazolo[1,5-a]pyrimidin-3-yl]phenol

> <PUBCHEM_IUPAC_SYSTEMATIC_NAME>
3-[7-[4-[(1S,4S)-5-methyl-2,5-diazabicyclo[2.2.1]heptan-2-yl]phenyl]-2-pyridin-4-yl-pyrazolo[1,5-a]pyrimidin-3-yl]phenol

> <PUBCHEM_IUPAC_TRADITIONAL_NAME>
3-[7-[4-[(1S,4S)-5-methyl-2,5-diazabicyclo[2.2.1]heptan-2-yl]phenyl]-2-(4-pyridyl)pyrazolo[1,5-a]pyrimidin-3-yl]phenol

> <PUBCHEM_IUPAC_INCHI>
InChI=1S/C29H26N6O/c1-33-17-24-16-23(33)18-34(24)22-7-5-19(6-8-22)26-11-14-31-29-27(21-3-2-4-25(36)15-21)28(32-35(26)29)20-9-12-30-13-10-20/h2-15,23-24,36H,16-18H2,1H3/t23-,24-/m0/s1

> <PUBCHEM_IUPAC_INCHIKEY>
MZPDPRITYJNRSG-ZEQRLZLVSA-N

> <PUBCHEM_XLOGP3_AA>
4

> <PUBCHEM_EXACT_MASS>
474.21680947

> <PUBCHEM_MOLECULAR_FORMULA>
C29H26N6O

> <PUBCHEM_MOLECULAR_WEIGHT>
474.6

> <PUBCHEM_SMILES>
CN1C[C@@H]2C[C@H]1CN2C3=CC=C(C=C3)C4=CC=NC5=C(C(=NN45)C6=CC=NC=C6)C7=CC(=CC=C7)O

> <PUBCHEM_OPENEYE_CAN_SMILES>
CN1CC2CC1CN2C3=CC=C(C=C3)C4=CC=NC5=C(C(=NN45)C6=CC=NC=C6)C7=CC(=CC=C7)O

> <PUBCHEM_OPENEYE_ISO_SMILES>
CN1C[C@@H]2C[C@H]1CN2C3=CC=C(C=C3)C4=CC=NC5=C(C(=NN45)C6=CC=NC=C6)C7=CC(=CC=C7)O

> <PUBCHEM_CACTVS_TPSA>
69.8

> <PUBCHEM_MONOISOTOPIC_WEIGHT>
474.21680947

> <PUBCHEM_TOTAL_CHARGE>
0

> <PUBCHEM_HEAVY_ATOM_COUNT>
36

> <PUBCHEM_ATOM_DEF_STEREO_COUNT>
2

> <PUBCHEM_ATOM_UDEF_STEREO_COUNT>
0

> <PUBCHEM_BOND_DEF_STEREO_COUNT>
0

> <PUBCHEM_BOND_UDEF_STEREO_COUNT>
0

> <PUBCHEM_ISOTOPIC_ATOM_COUNT>
0

> <PUBCHEM_COMPONENT_COUNT>
1

> <PUBCHEM_CACTVS_TAUTO_COUNT>
-1

> <PUBCHEM_COORDINATE_TYPE>
1
5
255

> <PUBCHEM_BONDANNOTATIONS>
13  15  8
13  16  8
15  17  8
16  18  8
17  19  8
18  19  8
20  21  8
21  25  8
22  23  8
23  24  8
26  28  8
26  29  8
27  30  8
27  31  8
28  32  8
29  33  8
30  35  8
31  36  8
32  34  8
33  34  8
4  20  8
4  22  8
4  5  8
5  24  8
6  22  8
6  25  8
7  35  8
7  36  8
8  37  6
9  38  5

$$$$
