712193
  -OEChem-03192523262D

 32 34  0     0  0  0  0  0  0999 V2000
    6.3981   -2.7673    0.0000 O   0  0  0  0  0  0  0  0  0  0  0  0
    4.6660    0.2327    0.0000 N   0  0  0  0  0  0  0  0  0  0  0  0
    5.5321    1.7327    0.0000 N   0  0  0  0  0  0  0  0  0  0  0  0
    4.6660    3.2327    0.0000 N   0  0  0  0  0  0  0  0  0  0  0  0
    3.8000    1.7327    0.0000 C   0  0  0  0  0  0  0  0  0  0  0  0
    4.6660    1.2327    0.0000 C   0  0  0  0  0  0  0  0  0  0  0  0
    5.5321   -0.2673    0.0000 C   0  0  0  0  0  0  0  0  0  0  0  0
    3.8000    2.7327    0.0000 C   0  0  0  0  0  0  0  0  0  0  0  0
    2.9061    1.1980    0.0000 C   0  0  0  0  0  0  0  0  0  0  0  0
    5.5321   -1.2673    0.0000 C   0  0  0  0  0  0  0  0  0  0  0  0
    6.3981    0.2327    0.0000 C   0  0  0  0  0  0  0  0  0  0  0  0
    2.9061    3.2673    0.0000 C   0  0  0  0  0  0  0  0  0  0  0  0
    6.3981   -1.7673    0.0000 C   0  0  0  0  0  0  0  0  0  0  0  0
    2.0000    1.7118    0.0000 C   0  0  0  0  0  0  0  0  0  0  0  0
    2.0000    2.7535    0.0000 C   0  0  0  0  0  0  0  0  0  0  0  0
    7.2641   -0.2673    0.0000 C   0  0  0  0  0  0  0  0  0  0  0  0
    7.2641   -1.2673    0.0000 C   0  0  0  0  0  0  0  0  0  0  0  0
    5.5321    2.7327    0.0000 C   0  0  0  0  0  0  0  0  0  0  0  0
    7.2641   -3.2673    0.0000 C   0  0  0  0  0  0  0  0  0  0  0  0
    4.1291   -0.0773    0.0000 H   0  0  0  0  0  0  0  0  0  0  0  0
    2.9132    0.5780    0.0000 H   0  0  0  0  0  0  0  0  0  0  0  0
    4.9951   -1.5773    0.0000 H   0  0  0  0  0  0  0  0  0  0  0  0
    6.3981    0.8527    0.0000 H   0  0  0  0  0  0  0  0  0  0  0  0
    2.9132    3.8873    0.0000 H   0  0  0  0  0  0  0  0  0  0  0  0
    1.4643    1.3998    0.0000 H   0  0  0  0  0  0  0  0  0  0  0  0
    1.4643    3.0656    0.0000 H   0  0  0  0  0  0  0  0  0  0  0  0
    7.8010    0.0427    0.0000 H   0  0  0  0  0  0  0  0  0  0  0  0
    7.8010   -1.5773    0.0000 H   0  0  0  0  0  0  0  0  0  0  0  0
    6.0690    3.0427    0.0000 H   0  0  0  0  0  0  0  0  0  0  0  0
    6.9541   -3.8043    0.0000 H   0  0  0  0  0  0  0  0  0  0  0  0
    7.8010   -3.5773    0.0000 H   0  0  0  0  0  0  0  0  0  0  0  0
    7.5741   -2.7304    0.0000 H   0  0  0  0  0  0  0  0  0  0  0  0
  1 13  1  0  0  0  0
  1 19  1  0  0  0  0
  2  6  1  0  0  0  0
  2  7  1  0  0  0  0
  2 20  1  0  0  0  0
  3  6  2  0  0  0  0
  3 18  1  0  0  0  0
  4  8  1  0  0  0  0
  4 18  2  0  0  0  0
  5  6  1  0  0  0  0
  5  8  1  0  0  0  0
  5  9  2  0  0  0  0
  7 10  2  0  0  0  0
  7 11  1  0  0  0  0
  8 12  2  0  0  0  0
  9 14  1  0  0  0  0
  9 21  1  0  0  0  0
 10 13  1  0  0  0  0
 10 22  1  0  0  0  0
 11 16  2  0  0  0  0
 11 23  1  0  0  0  0
 12 15  1  0  0  0  0
 12 24  1  0  0  0  0
 13 17  2  0  0  0  0
 14 15  2  0  0  0  0
 14 25  1  0  0  0  0
 15 26  1  0  0  0  0
 16 17  1  0  0  0  0
 16 27  1  0  0  0  0
 17 28  1  0  0  0  0
 18 29  1  0  0  0  0
 19 30  1  0  0  0  0
 19 31  1  0  0  0  0
 19 32  1  0  0  0  0
M  END
> <PUBCHEM_COMPOUND_CID>
712193

> <PUBCHEM_COMPOUND_CANONICALIZED>
1

> <PUBCHEM_CACTVS_COMPLEXITY>
287

> <PUBCHEM_CACTVS_HBOND_ACCEPTOR>
4

> <PUBCHEM_CACTVS_HBOND_DONOR>
1

> <PUBCHEM_CACTVS_ROTATABLE_BOND>
3

> <PUBCHEM_CACTVS_SUBSKEYS>
AAADccBzIAAAAAAAAAAAAAAAAAAAAAAAAAA8YIAAAAAAAACx9AAAHgAQAAAADAyBngY39vbIFACgAyZjZACCiCkxIqAJ2CA+bJiMLuLE+duENChu0BvI6CeQ0AMOAAAAAgACAAAAAAAEAAQAAAAAAAAAAA==

> <PUBCHEM_IUPAC_OPENEYE_NAME>
N-(3-methoxyphenyl)quinazolin-4-amine

> <PUBCHEM_IUPAC_CAS_NAME>
N-(3-methoxyphenyl)-4-quinazolinamine

> <PUBCHEM_IUPAC_NAME_MARKUP>
<I>N</I>-(3-methoxyphenyl)quinazolin-4-amine

> <PUBCHEM_IUPAC_NAME>
N-(3-methoxyphenyl)quinazolin-4-amine

> <PUBCHEM_IUPAC_SYSTEMATIC_NAME>
N-(3-methoxyphenyl)quinazolin-4-amine

> <PUBCHEM_IUPAC_TRADITIONAL_NAME>
(3-methoxyphenyl)-quinazolin-4-yl-amine

> <PUBCHEM_IUPAC_INCHI>
InChI=1S/C15H13N3O/c1-19-12-6-4-5-11(9-12)18-15-13-7-2-3-8-14(13)16-10-17-15/h2-10H,1H3,(H,16,17,18)

> <PUBCHEM_IUPAC_INCHIKEY>
LCYPRFCDTJTQPG-UHFFFAOYSA-N

> <PUBCHEM_XLOGP3>
3.9

> <PUBCHEM_EXACT_MASS>
251.105862047

> <PUBCHEM_MOLECULAR_FORMULA>
C15H13N3O

> <PUBCHEM_MOLECULAR_WEIGHT>
251.28

> <PUBCHEM_SMILES>
COC1=CC=CC(=C1)NC2=NC=NC3=CC=CC=C32

> <PUBCHEM_OPENEYE_CAN_SMILES>
COC1=CC=CC(=C1)NC2=NC=NC3=CC=CC=C32

> <PUBCHEM_OPENEYE_ISO_SMILES>
COC1=CC=CC(=C1)NC2=NC=NC3=CC=CC=C32

> <PUBCHEM_CACTVS_TPSA>
47

> <PUBCHEM_MONOISOTOPIC_WEIGHT>
251.105862047

> <PUBCHEM_TOTAL_CHARGE>
0

> <PUBCHEM_HEAVY_ATOM_COUNT>
19

> <PUBCHEM_ATOM_DEF_STEREO_COUNT>
0

> <PUBCHEM_ATOM_UDEF_STEREO_COUNT>
0

> <PUBCHEM_BOND_DEF_STEREO_COUNT>
0

> <PUBCHEM_BOND_UDEF_STEREO_COUNT>
0

> <PUBCHEM_ISOTOPIC_ATOM_COUNT>
0

> <PUBCHEM_COMPONENT_COUNT>
1

> <PUBCHEM_CACTVS_TAUTO_COUNT>
-1

> <PUBCHEM_COORDINATE_TYPE>
1
5
255

> <PUBCHEM_BONDANNOTATIONS>
10  13  8
11  16  8
12  15  8
13  17  8
14  15  8
16  17  8
3  18  8
3  6  8
4  18  8
4  8  8
5  6  8
5  8  8
5  9  8
7  10  8
7  11  8
8  12  8
9  14  8

$$$$
