49830354
  -OEChem-03202503482D

 47 50  0     0  0  0  0  0  0999 V2000
    4.6783   -3.8680    0.0000 S   0  0  0  0  0  0  0  0  0  0  0  0
    7.5673    1.0055    0.0000 O   0  0  0  0  0  0  0  0  0  0  0  0
    5.9209    1.5436    0.0000 N   0  0  0  0  0  0  0  0  0  0  0  0
    7.2101    2.7003    0.0000 N   0  0  0  0  0  0  0  0  0  0  0  0
    2.8660   -4.0633    0.0000 N   0  0  0  0  0  0  0  0  0  0  0  0
    2.0000   -2.5633    0.0000 N   0  0  0  0  0  0  0  0  0  0  0  0
    2.8660   -1.0633    0.0000 N   0  0  0  0  0  0  0  0  0  0  0  0
    4.6783   -2.2585    0.0000 C   0  0  0  0  0  0  0  0  0  0  0  0
    4.9889   -1.3080    0.0000 C   0  0  0  0  0  0  0  0  0  0  0  0
    3.7320   -2.5633    0.0000 C   0  0  0  0  0  0  0  0  0  0  0  0
    3.7320   -3.5633    0.0000 C   0  0  0  0  0  0  0  0  0  0  0  0
    5.9674   -1.1018    0.0000 C   0  0  0  0  0  0  0  0  0  0  0  0
    4.3211   -0.5637    0.0000 C   0  0  0  0  0  0  0  0  0  0  0  0
    5.6103    0.5930    0.0000 C   0  0  0  0  0  0  0  0  0  0  0  0
    5.2619   -3.0633    0.0000 C   0  0  0  0  0  0  0  0  0  0  0  0
    9.8349    2.3684    0.0000 C   0  0  0  0  0  0  0  0  0  0  0  0
   10.1456    3.3190    0.0000 C   0  0  0  0  0  0  0  0  0  0  0  0
    8.1886    2.9065    0.0000 C   0  0  0  0  0  0  0  0  0  0  0  0
    6.2781   -0.1513    0.0000 C   0  0  0  0  0  0  0  0  0  0  0  0
    4.6318    0.3868    0.0000 C   0  0  0  0  0  0  0  0  0  0  0  0
    2.8660   -2.0633    0.0000 C   0  0  0  0  0  0  0  0  0  0  0  0
    8.8564    2.1622    0.0000 C   0  0  0  0  0  0  0  0  0  0  0  0
    9.4778    4.0633    0.0000 C   0  0  0  0  0  0  0  0  0  0  0  0
    8.4993    3.8570    0.0000 C   0  0  0  0  0  0  0  0  0  0  0  0
   10.5028    1.6241    0.0000 C   0  0  0  0  0  0  0  0  0  0  0  0
    6.8994    1.7498    0.0000 C   0  0  0  0  0  0  0  0  0  0  0  0
   11.1241    3.5252    0.0000 C   0  0  0  0  0  0  0  0  0  0  0  0
    2.0000   -3.5633    0.0000 C   0  0  0  0  0  0  0  0  0  0  0  0
    6.3815   -1.5632    0.0000 H   0  0  0  0  0  0  0  0  0  0  0  0
    3.7144   -0.6916    0.0000 H   0  0  0  0  0  0  0  0  0  0  0  0
    5.8819   -3.0633    0.0000 H   0  0  0  0  0  0  0  0  0  0  0  0
    6.8848   -0.0234    0.0000 H   0  0  0  0  0  0  0  0  0  0  0  0
    4.2177    0.8483    0.0000 H   0  0  0  0  0  0  0  0  0  0  0  0
    8.6638    1.5729    0.0000 H   0  0  0  0  0  0  0  0  0  0  0  0
    9.6704    4.6526    0.0000 H   0  0  0  0  0  0  0  0  0  0  0  0
    8.0852    4.3185    0.0000 H   0  0  0  0  0  0  0  0  0  0  0  0
    5.5069    2.0050    0.0000 H   0  0  0  0  0  0  0  0  0  0  0  0
    6.7960    3.1618    0.0000 H   0  0  0  0  0  0  0  0  0  0  0  0
   10.0413    1.2101    0.0000 H   0  0  0  0  0  0  0  0  0  0  0  0
   10.9169    1.1627    0.0000 H   0  0  0  0  0  0  0  0  0  0  0  0
   10.9643    2.0382    0.0000 H   0  0  0  0  0  0  0  0  0  0  0  0
   11.2520    2.9185    0.0000 H   0  0  0  0  0  0  0  0  0  0  0  0
   11.7308    3.6530    0.0000 H   0  0  0  0  0  0  0  0  0  0  0  0
   10.9963    4.1318    0.0000 H   0  0  0  0  0  0  0  0  0  0  0  0
    1.4631   -3.8733    0.0000 H   0  0  0  0  0  0  0  0  0  0  0  0
    2.3291   -0.7533    0.0000 H   0  0  0  0  0  0  0  0  0  0  0  0
    3.4030   -0.7533    0.0000 H   0  0  0  0  0  0  0  0  0  0  0  0
  1 11  1  0  0  0  0
  1 15  1  0  0  0  0
  2 26  2  0  0  0  0
  3 14  1  0  0  0  0
  3 26  1  0  0  0  0
  3 37  1  0  0  0  0
  4 18  1  0  0  0  0
  4 26  1  0  0  0  0
  4 38  1  0  0  0  0
  5 11  2  0  0  0  0
  5 28  1  0  0  0  0
  6 21  1  0  0  0  0
  6 28  2  0  0  0  0
  7 21  1  0  0  0  0
  7 46  1  0  0  0  0
  7 47  1  0  0  0  0
  8  9  1  0  0  0  0
  8 10  1  0  0  0  0
  8 15  2  0  0  0  0
  9 12  2  0  0  0  0
  9 13  1  0  0  0  0
 10 11  1  0  0  0  0
 10 21  2  0  0  0  0
 12 19  1  0  0  0  0
 12 29  1  0  0  0  0
 13 20  2  0  0  0  0
 13 30  1  0  0  0  0
 14 19  2  0  0  0  0
 14 20  1  0  0  0  0
 15 31  1  0  0  0  0
 16 17  2  0  0  0  0
 16 22  1  0  0  0  0
 16 25  1  0  0  0  0
 17 23  1  0  0  0  0
 17 27  1  0  0  0  0
 18 22  2  0  0  0  0
 18 24  1  0  0  0  0
 19 32  1  0  0  0  0
 20 33  1  0  0  0  0
 22 34  1  0  0  0  0
 23 24  2  0  0  0  0
 23 35  1  0  0  0  0
 24 36  1  0  0  0  0
 25 39  1  0  0  0  0
 25 40  1  0  0  0  0
 25 41  1  0  0  0  0
 27 42  1  0  0  0  0
 27 43  1  0  0  0  0
 27 44  1  0  0  0  0
 28 45  1  0  0  0  0
M  END
> <PUBCHEM_COMPOUND_CID>
49830354

> <PUBCHEM_COMPOUND_CANONICALIZED>
1

> <PUBCHEM_CACTVS_COMPLEXITY>
541

> <PUBCHEM_CACTVS_HBOND_ACCEPTOR>
5

> <PUBCHEM_CACTVS_HBOND_DONOR>
3

> <PUBCHEM_CACTVS_ROTATABLE_BOND>
3

> <PUBCHEM_CACTVS_SUBSKEYS>
AAADceB7oABAAAAAAAAAAAAAAAAAASAAAAA8YIAAAAAAAFgB/AAAHgQQAAAADAiFWgS38dbIEAisAiZjdACD0KlxCrgJ2DAoZJiIKCLg2dGEJAxolAJoyCcQgMAOiAAAQAAQAAAQAACAACAAAAAAAAAAAA==

> <PUBCHEM_IUPAC_OPENEYE_NAME>
1-[4-(4-aminothieno[2,3-d]pyrimidin-5-yl)phenyl]-3-(3,4-dimethylphenyl)urea

> <PUBCHEM_IUPAC_CAS_NAME>
1-[4-(4-amino-5-thieno[2,3-d]pyrimidinyl)phenyl]-3-(3,4-dimethylphenyl)urea

> <PUBCHEM_IUPAC_NAME_MARKUP>
1-[4-(4-aminothieno[2,3-d]pyrimidin-5-yl)phenyl]-3-(3,4-dimethylphenyl)urea

> <PUBCHEM_IUPAC_NAME>
1-[4-(4-aminothieno[2,3-d]pyrimidin-5-yl)phenyl]-3-(3,4-dimethylphenyl)urea

> <PUBCHEM_IUPAC_SYSTEMATIC_NAME>
1-[4-(4-azanylthieno[2,3-d]pyrimidin-5-yl)phenyl]-3-(3,4-dimethylphenyl)urea

> <PUBCHEM_IUPAC_TRADITIONAL_NAME>
1-[4-(4-aminothieno[2,3-d]pyrimidin-5-yl)phenyl]-3-(3,4-dimethylphenyl)urea

> <PUBCHEM_IUPAC_INCHI>
InChI=1S/C21H19N5OS/c1-12-3-6-16(9-13(12)2)26-21(27)25-15-7-4-14(5-8-15)17-10-28-20-18(17)19(22)23-11-24-20/h3-11H,1-2H3,(H2,22,23,24)(H2,25,26,27)

> <PUBCHEM_IUPAC_INCHIKEY>
DKSNLQYRZJKYOC-UHFFFAOYSA-N

> <PUBCHEM_XLOGP3_AA>
4.1

> <PUBCHEM_EXACT_MASS>
389.13103142

> <PUBCHEM_MOLECULAR_FORMULA>
C21H19N5OS

> <PUBCHEM_MOLECULAR_WEIGHT>
389.5

> <PUBCHEM_SMILES>
CC1=C(C=C(C=C1)NC(=O)NC2=CC=C(C=C2)C3=CSC4=NC=NC(=C34)N)C

> <PUBCHEM_OPENEYE_CAN_SMILES>
CC1=C(C=C(C=C1)NC(=O)NC2=CC=C(C=C2)C3=CSC4=NC=NC(=C34)N)C

> <PUBCHEM_OPENEYE_ISO_SMILES>
CC1=C(C=C(C=C1)NC(=O)NC2=CC=C(C=C2)C3=CSC4=NC=NC(=C34)N)C

> <PUBCHEM_CACTVS_TPSA>
121

> <PUBCHEM_MONOISOTOPIC_WEIGHT>
389.13103142

> <PUBCHEM_TOTAL_CHARGE>
0

> <PUBCHEM_HEAVY_ATOM_COUNT>
28

> <PUBCHEM_ATOM_DEF_STEREO_COUNT>
0

> <PUBCHEM_ATOM_UDEF_STEREO_COUNT>
0

> <PUBCHEM_BOND_DEF_STEREO_COUNT>
0

> <PUBCHEM_BOND_UDEF_STEREO_COUNT>
0

> <PUBCHEM_ISOTOPIC_ATOM_COUNT>
0

> <PUBCHEM_COMPONENT_COUNT>
1

> <PUBCHEM_CACTVS_TAUTO_COUNT>
-1

> <PUBCHEM_COORDINATE_TYPE>
1
5
255

> <PUBCHEM_BONDANNOTATIONS>
1  11  8
1  15  8
10  11  8
10  21  8
12  19  8
13  20  8
14  19  8
14  20  8
16  17  8
16  22  8
17  23  8
18  22  8
18  24  8
23  24  8
5  11  8
5  28  8
6  21  8
6  28  8
8  10  8
8  15  8
9  12  8
9  13  8

$$$$
