49830792
  -OEChem-03202503592D

 34 36  0     0  0  0  0  0  0999 V2000
    6.4103   -2.5363    0.0000 S   0  0  0  0  0  0  0  0  0  0  0  0
    7.1962    2.7685    0.0000 F   0  0  0  0  0  0  0  0  0  0  0  0
    5.8301    3.1345    0.0000 F   0  0  0  0  0  0  0  0  0  0  0  0
    6.8301    1.4024    0.0000 F   0  0  0  0  0  0  0  0  0  0  0  0
    2.0000    2.7685    0.0000 F   0  0  0  0  0  0  0  0  0  0  0  0
    3.3660    3.1345    0.0000 F   0  0  0  0  0  0  0  0  0  0  0  0
    2.3660    1.4024    0.0000 F   0  0  0  0  0  0  0  0  0  0  0  0
    8.4939   -0.8655    0.0000 O   0  0  0  0  0  0  0  0  0  0  0  0
    3.7320   -2.2315    0.0000 N   0  0  0  0  0  0  0  0  0  0  0  0
    8.4939   -2.5976    0.0000 N   0  0  0  0  0  0  0  0  0  0  0  0
    4.5981   -0.7315    0.0000 C   0  0  0  0  0  0  0  0  0  0  0  0
    4.5981    0.2685    0.0000 C   0  0  0  0  0  0  0  0  0  0  0  0
    5.4641   -1.2315    0.0000 C   0  0  0  0  0  0  0  0  0  0  0  0
    3.7320    0.7685    0.0000 C   0  0  0  0  0  0  0  0  0  0  0  0
    5.4641    0.7685    0.0000 C   0  0  0  0  0  0  0  0  0  0  0  0
    5.4641   -2.2315    0.0000 C   0  0  0  0  0  0  0  0  0  0  0  0
    3.7320    1.7685    0.0000 C   0  0  0  0  0  0  0  0  0  0  0  0
    5.4641    1.7685    0.0000 C   0  0  0  0  0  0  0  0  0  0  0  0
    6.4103   -0.9268    0.0000 C   0  0  0  0  0  0  0  0  0  0  0  0
    4.5981    2.2685    0.0000 C   0  0  0  0  0  0  0  0  0  0  0  0
    3.7320   -1.2315    0.0000 C   0  0  0  0  0  0  0  0  0  0  0  0
    6.9939   -1.7315    0.0000 C   0  0  0  0  0  0  0  0  0  0  0  0
    4.5981   -2.7315    0.0000 C   0  0  0  0  0  0  0  0  0  0  0  0
    6.3301    2.2685    0.0000 C   0  0  0  0  0  0  0  0  0  0  0  0
    2.8660    2.2685    0.0000 C   0  0  0  0  0  0  0  0  0  0  0  0
    7.9939   -1.7315    0.0000 C   0  0  0  0  0  0  0  0  0  0  0  0
    3.1951    0.4585    0.0000 H   0  0  0  0  0  0  0  0  0  0  0  0
    6.0010    0.4585    0.0000 H   0  0  0  0  0  0  0  0  0  0  0  0
    6.6029   -0.3375    0.0000 H   0  0  0  0  0  0  0  0  0  0  0  0
    4.5981    2.8885    0.0000 H   0  0  0  0  0  0  0  0  0  0  0  0
    3.1951   -0.9215    0.0000 H   0  0  0  0  0  0  0  0  0  0  0  0
    4.5981   -3.3515    0.0000 H   0  0  0  0  0  0  0  0  0  0  0  0
    9.1139   -2.5976    0.0000 H   0  0  0  0  0  0  0  0  0  0  0  0
    8.1839   -3.1345    0.0000 H   0  0  0  0  0  0  0  0  0  0  0  0
  1 16  1  0  0  0  0
  1 22  1  0  0  0  0
  2 24  1  0  0  0  0
  3 24  1  0  0  0  0
  4 24  1  0  0  0  0
  5 25  1  0  0  0  0
  6 25  1  0  0  0  0
  7 25  1  0  0  0  0
  8 26  2  0  0  0  0
  9 21  1  0  0  0  0
  9 23  2  0  0  0  0
 10 26  1  0  0  0  0
 10 33  1  0  0  0  0
 10 34  1  0  0  0  0
 11 12  1  0  0  0  0
 11 13  1  0  0  0  0
 11 21  2  0  0  0  0
 12 14  2  0  0  0  0
 12 15  1  0  0  0  0
 13 16  2  0  0  0  0
 13 19  1  0  0  0  0
 14 17  1  0  0  0  0
 14 27  1  0  0  0  0
 15 18  2  0  0  0  0
 15 28  1  0  0  0  0
 16 23  1  0  0  0  0
 17 20  2  0  0  0  0
 17 25  1  0  0  0  0
 18 20  1  0  0  0  0
 18 24  1  0  0  0  0
 19 22  2  0  0  0  0
 19 29  1  0  0  0  0
 20 30  1  0  0  0  0
 21 31  1  0  0  0  0
 22 26  1  0  0  0  0
 23 32  1  0  0  0  0
M  END
> <PUBCHEM_COMPOUND_CID>
49830792

> <PUBCHEM_COMPOUND_CANONICALIZED>
1

> <PUBCHEM_CACTVS_COMPLEXITY>
518

> <PUBCHEM_CACTVS_HBOND_ACCEPTOR>
9

> <PUBCHEM_CACTVS_HBOND_DONOR>
1

> <PUBCHEM_CACTVS_ROTATABLE_BOND>
2

> <PUBCHEM_CACTVS_SUBSKEYS>
AAADccB7IcBAAAAAAAAAAAAAAAAAASAAAAA8QAAAAAAAAFgB/AAAHwQQAAAADADB2hQ8gdJIEAisAjF3VACDoKA1CDBA2D0oRNgIIHLglZGEIQhggADoyYcYiMCOgAACAAAAAAAAAAQAAAAAAAAAAAAAAA==

> <PUBCHEM_IUPAC_OPENEYE_NAME>
4-[3,5-bis(trifluoromethyl)phenyl]thieno[2,3-c]pyridine-2-carboxamide

> <PUBCHEM_IUPAC_CAS_NAME>
4-[3,5-bis(trifluoromethyl)phenyl]-2-thieno[2,3-c]pyridinecarboxamide

> <PUBCHEM_IUPAC_NAME_MARKUP>
4-[3,5-bis(trifluoromethyl)phenyl]thieno[2,3-c]pyridine-2-carboxamide

> <PUBCHEM_IUPAC_NAME>
4-[3,5-bis(trifluoromethyl)phenyl]thieno[2,3-c]pyridine-2-carboxamide

> <PUBCHEM_IUPAC_SYSTEMATIC_NAME>
4-[3,5-bis(trifluoromethyl)phenyl]thieno[2,3-c]pyridine-2-carboxamide

> <PUBCHEM_IUPAC_TRADITIONAL_NAME>
4-[3,5-bis(trifluoromethyl)phenyl]thieno[2,3-c]pyridine-2-carboxamide

> <PUBCHEM_IUPAC_INCHI>
InChI=1S/C16H8F6N2OS/c17-15(18,19)8-1-7(2-9(3-8)16(20,21)22)11-5-24-6-13-10(11)4-12(26-13)14(23)25/h1-6H,(H2,23,25)

> <PUBCHEM_IUPAC_INCHIKEY>
DWHOVKRIZFMOSJ-UHFFFAOYSA-N

> <PUBCHEM_XLOGP3_AA>
4.5

> <PUBCHEM_EXACT_MASS>
390.02615303

> <PUBCHEM_MOLECULAR_FORMULA>
C16H8F6N2OS

> <PUBCHEM_MOLECULAR_WEIGHT>
390.3

> <PUBCHEM_SMILES>
C1=C(C=C(C=C1C(F)(F)F)C(F)(F)F)C2=CN=CC3=C2C=C(S3)C(=O)N

> <PUBCHEM_OPENEYE_CAN_SMILES>
C1=C(C=C(C=C1C(F)(F)F)C(F)(F)F)C2=CN=CC3=C2C=C(S3)C(=O)N

> <PUBCHEM_OPENEYE_ISO_SMILES>
C1=C(C=C(C=C1C(F)(F)F)C(F)(F)F)C2=CN=CC3=C2C=C(S3)C(=O)N

> <PUBCHEM_CACTVS_TPSA>
84.2

> <PUBCHEM_MONOISOTOPIC_WEIGHT>
390.02615303

> <PUBCHEM_TOTAL_CHARGE>
0

> <PUBCHEM_HEAVY_ATOM_COUNT>
26

> <PUBCHEM_ATOM_DEF_STEREO_COUNT>
0

> <PUBCHEM_ATOM_UDEF_STEREO_COUNT>
0

> <PUBCHEM_BOND_DEF_STEREO_COUNT>
0

> <PUBCHEM_BOND_UDEF_STEREO_COUNT>
0

> <PUBCHEM_ISOTOPIC_ATOM_COUNT>
0

> <PUBCHEM_COMPONENT_COUNT>
1

> <PUBCHEM_CACTVS_TAUTO_COUNT>
-1

> <PUBCHEM_COORDINATE_TYPE>
1
5
255

> <PUBCHEM_BONDANNOTATIONS>
1  16  8
1  22  8
11  13  8
11  21  8
12  14  8
12  15  8
13  16  8
13  19  8
14  17  8
15  18  8
16  23  8
17  20  8
18  20  8
19  22  8
9  21  8
9  23  8

$$$$
