10046873
  -OEChem-03202507202D

 50 54  0     0  0  0  0  0  0999 V2000
    6.7210   -1.7552    0.0000 O   0  0  0  0  0  0  0  0  0  0  0  0
    6.7210    1.7552    0.0000 O   0  0  0  0  0  0  0  0  0  0  0  0
    6.9939    0.0000    0.0000 N   0  0  0  0  0  0  0  0  0  0  0  0
    2.8660   -1.0000    0.0000 N   0  0  0  0  0  0  0  0  0  0  0  0
    2.8660    1.0000    0.0000 N   0  0  0  0  0  0  0  0  0  0  0  0
    5.4641   -0.5000    0.0000 C   0  0  0  0  0  0  0  0  0  0  0  0
    5.4641    0.5000    0.0000 C   0  0  0  0  0  0  0  0  0  0  0  0
    3.7320   -0.5000    0.0000 C   0  0  0  0  0  0  0  0  0  0  0  0
    3.7320    0.5000    0.0000 C   0  0  0  0  0  0  0  0  0  0  0  0
    6.4103   -0.8047    0.0000 C   0  0  0  0  0  0  0  0  0  0  0  0
    6.4103    0.8047    0.0000 C   0  0  0  0  0  0  0  0  0  0  0  0
    4.5981   -1.0000    0.0000 C   0  0  0  0  0  0  0  0  0  0  0  0
    4.5981    1.0000    0.0000 C   0  0  0  0  0  0  0  0  0  0  0  0
    7.9939    0.0000    0.0000 C   0  0  0  0  0  0  0  0  0  0  0  0
    2.8660   -2.0000    0.0000 C   0  0  0  0  0  0  0  0  0  0  0  0
    2.8660    2.0000    0.0000 C   0  0  0  0  0  0  0  0  0  0  0  0
    8.4939   -0.8660    0.0000 C   0  0  0  0  0  0  0  0  0  0  0  0
    8.4939    0.8660    0.0000 C   0  0  0  0  0  0  0  0  0  0  0  0
    9.4939   -0.8660    0.0000 C   0  0  0  0  0  0  0  0  0  0  0  0
    9.4939    0.8660    0.0000 C   0  0  0  0  0  0  0  0  0  0  0  0
    2.0000   -2.5000    0.0000 C   0  0  0  0  0  0  0  0  0  0  0  0
    3.7320    2.5000    0.0000 C   0  0  0  0  0  0  0  0  0  0  0  0
    3.7320   -2.5000    0.0000 C   0  0  0  0  0  0  0  0  0  0  0  0
    2.0000    2.5000    0.0000 C   0  0  0  0  0  0  0  0  0  0  0  0
    9.9939   -0.0000    0.0000 C   0  0  0  0  0  0  0  0  0  0  0  0
    2.0000   -3.5000    0.0000 C   0  0  0  0  0  0  0  0  0  0  0  0
    3.7320    3.5000    0.0000 C   0  0  0  0  0  0  0  0  0  0  0  0
    3.7320   -3.5000    0.0000 C   0  0  0  0  0  0  0  0  0  0  0  0
    2.0000    3.5000    0.0000 C   0  0  0  0  0  0  0  0  0  0  0  0
    2.8660   -4.0000    0.0000 C   0  0  0  0  0  0  0  0  0  0  0  0
    2.8660    4.0000    0.0000 C   0  0  0  0  0  0  0  0  0  0  0  0
    4.5981   -1.6200    0.0000 H   0  0  0  0  0  0  0  0  0  0  0  0
    4.5981    1.6200    0.0000 H   0  0  0  0  0  0  0  0  0  0  0  0
    2.3291   -0.6900    0.0000 H   0  0  0  0  0  0  0  0  0  0  0  0
    2.3291    0.6900    0.0000 H   0  0  0  0  0  0  0  0  0  0  0  0
    8.1839   -1.4030    0.0000 H   0  0  0  0  0  0  0  0  0  0  0  0
    8.1839    1.4030    0.0000 H   0  0  0  0  0  0  0  0  0  0  0  0
    9.8039   -1.4030    0.0000 H   0  0  0  0  0  0  0  0  0  0  0  0
    9.8039    1.4030    0.0000 H   0  0  0  0  0  0  0  0  0  0  0  0
    1.4631   -2.1900    0.0000 H   0  0  0  0  0  0  0  0  0  0  0  0
    4.2690    2.1900    0.0000 H   0  0  0  0  0  0  0  0  0  0  0  0
    4.2690   -2.1900    0.0000 H   0  0  0  0  0  0  0  0  0  0  0  0
    1.4631    2.1900    0.0000 H   0  0  0  0  0  0  0  0  0  0  0  0
   10.6139   -0.0000    0.0000 H   0  0  0  0  0  0  0  0  0  0  0  0
    1.4631   -3.8100    0.0000 H   0  0  0  0  0  0  0  0  0  0  0  0
    4.2690    3.8100    0.0000 H   0  0  0  0  0  0  0  0  0  0  0  0
    4.2690   -3.8100    0.0000 H   0  0  0  0  0  0  0  0  0  0  0  0
    1.4631    3.8100    0.0000 H   0  0  0  0  0  0  0  0  0  0  0  0
    2.8660   -4.6200    0.0000 H   0  0  0  0  0  0  0  0  0  0  0  0
    2.8660    4.6200    0.0000 H   0  0  0  0  0  0  0  0  0  0  0  0
  1 10  2  0  0  0  0
  2 11  2  0  0  0  0
  3 10  1  0  0  0  0
  3 11  1  0  0  0  0
  3 14  1  0  0  0  0
  4  8  1  0  0  0  0
  4 15  1  0  0  0  0
  4 34  1  0  0  0  0
  5  9  1  0  0  0  0
  5 16  1  0  0  0  0
  5 35  1  0  0  0  0
  6  7  1  0  0  0  0
  6 10  1  0  0  0  0
  6 12  2  0  0  0  0
  7 11  1  0  0  0  0
  7 13  2  0  0  0  0
  8  9  2  0  0  0  0
  8 12  1  0  0  0  0
  9 13  1  0  0  0  0
 12 32  1  0  0  0  0
 13 33  1  0  0  0  0
 14 17  2  0  0  0  0
 14 18  1  0  0  0  0
 15 21  2  0  0  0  0
 15 23  1  0  0  0  0
 16 22  2  0  0  0  0
 16 24  1  0  0  0  0
 17 19  1  0  0  0  0
 17 36  1  0  0  0  0
 18 20  2  0  0  0  0
 18 37  1  0  0  0  0
 19 25  2  0  0  0  0
 19 38  1  0  0  0  0
 20 25  1  0  0  0  0
 20 39  1  0  0  0  0
 21 26  1  0  0  0  0
 21 40  1  0  0  0  0
 22 27  1  0  0  0  0
 22 41  1  0  0  0  0
 23 28  2  0  0  0  0
 23 42  1  0  0  0  0
 24 29  2  0  0  0  0
 24 43  1  0  0  0  0
 25 44  1  0  0  0  0
 26 30  2  0  0  0  0
 26 45  1  0  0  0  0
 27 31  2  0  0  0  0
 27 46  1  0  0  0  0
 28 30  1  0  0  0  0
 28 47  1  0  0  0  0
 29 31  1  0  0  0  0
 29 48  1  0  0  0  0
 30 49  1  0  0  0  0
 31 50  1  0  0  0  0
M  END
> <PUBCHEM_COMPOUND_CID>
10046873

> <PUBCHEM_COMPOUND_CANONICALIZED>
1

> <PUBCHEM_CACTVS_COMPLEXITY>
589

> <PUBCHEM_CACTVS_HBOND_ACCEPTOR>
4

> <PUBCHEM_CACTVS_HBOND_DONOR>
2

> <PUBCHEM_CACTVS_ROTATABLE_BOND>
5

> <PUBCHEM_CACTVS_SUBSKEYS>
AAADceB7MAAAAAAAAAAAAAAAAAAAAWAAAAAwYMGAAAAAAFgBVAAAHgAQAAAADAiBmAAwwIPAAACIAiVSUACCAAAlAgAIiAEAdMgIYHLAlZGUIQhglCDIyYcdiYCeiAAAQAAQACAQAACAACAAQAAAAAAAAA==

> <PUBCHEM_IUPAC_OPENEYE_NAME>
5,6-dianilino-2-phenyl-isoindoline-1,3-dione

> <PUBCHEM_IUPAC_CAS_NAME>
5,6-dianilino-2-phenylisoindole-1,3-dione

> <PUBCHEM_IUPAC_NAME_MARKUP>
5,6-dianilino-2-phenylisoindole-1,3-dione

> <PUBCHEM_IUPAC_NAME>
5,6-dianilino-2-phenylisoindole-1,3-dione

> <PUBCHEM_IUPAC_SYSTEMATIC_NAME>
2-phenyl-5,6-bis(phenylazanyl)isoindole-1,3-dione

> <PUBCHEM_IUPAC_TRADITIONAL_NAME>
5,6-dianilino-2-phenyl-isoindoline-1,3-quinone

> <PUBCHEM_IUPAC_INCHI>
InChI=1S/C26H19N3O2/c30-25-21-16-23(27-18-10-4-1-5-11-18)24(28-19-12-6-2-7-13-19)17-22(21)26(31)29(25)20-14-8-3-9-15-20/h1-17,27-28H

> <PUBCHEM_IUPAC_INCHIKEY>
LRCXLVSLCVACQP-UHFFFAOYSA-N

> <PUBCHEM_XLOGP3>
5.5

> <PUBCHEM_EXACT_MASS>
405.147726857

> <PUBCHEM_MOLECULAR_FORMULA>
C26H19N3O2

> <PUBCHEM_MOLECULAR_WEIGHT>
405.4

> <PUBCHEM_SMILES>
C1=CC=C(C=C1)NC2=C(C=C3C(=C2)C(=O)N(C3=O)C4=CC=CC=C4)NC5=CC=CC=C5

> <PUBCHEM_OPENEYE_CAN_SMILES>
C1=CC=C(C=C1)NC2=C(C=C3C(=C2)C(=O)N(C3=O)C4=CC=CC=C4)NC5=CC=CC=C5

> <PUBCHEM_OPENEYE_ISO_SMILES>
C1=CC=C(C=C1)NC2=C(C=C3C(=C2)C(=O)N(C3=O)C4=CC=CC=C4)NC5=CC=CC=C5

> <PUBCHEM_CACTVS_TPSA>
61.4

> <PUBCHEM_MONOISOTOPIC_WEIGHT>
405.147726857

> <PUBCHEM_TOTAL_CHARGE>
0

> <PUBCHEM_HEAVY_ATOM_COUNT>
31

> <PUBCHEM_ATOM_DEF_STEREO_COUNT>
0

> <PUBCHEM_ATOM_UDEF_STEREO_COUNT>
0

> <PUBCHEM_BOND_DEF_STEREO_COUNT>
0

> <PUBCHEM_BOND_UDEF_STEREO_COUNT>
0

> <PUBCHEM_ISOTOPIC_ATOM_COUNT>
0

> <PUBCHEM_COMPONENT_COUNT>
1

> <PUBCHEM_CACTVS_TAUTO_COUNT>
-1

> <PUBCHEM_COORDINATE_TYPE>
1
5
255

> <PUBCHEM_BONDANNOTATIONS>
14  17  8
14  18  8
15  21  8
15  23  8
16  22  8
16  24  8
17  19  8
18  20  8
19  25  8
20  25  8
21  26  8
22  27  8
23  28  8
24  29  8
26  30  8
27  31  8
28  30  8
29  31  8
6  12  8
6  7  8
7  13  8
8  12  8
8  9  8
9  13  8

$$$$
