24905221
  -OEChem-03192523562D

 41 44  0     0  0  0  0  0  0999 V2000
    4.6783   -2.2700    0.0000 N   0  0  0  0  0  0  0  0  0  0  0  0
    5.2619   -1.4652    0.0000 N   0  0  0  0  0  0  0  0  0  0  0  0
    6.1110    3.0498    0.0000 N   0  0  0  0  0  0  0  0  0  0  0  0
    2.8660   -2.4652    0.0000 N   0  0  0  0  0  0  0  0  0  0  0  0
    2.0000   -0.9652    0.0000 N   0  0  0  0  0  0  0  0  0  0  0  0
    2.8660    0.5348    0.0000 N   0  0  0  0  0  0  0  0  0  0  0  0
    4.9889   -3.2205    0.0000 C   0  0  0  0  0  0  0  0  0  0  0  0
    4.6783   -0.6605    0.0000 C   0  0  0  0  0  0  0  0  0  0  0  0
    3.7320   -0.9652    0.0000 C   0  0  0  0  0  0  0  0  0  0  0  0
    3.7320   -1.9652    0.0000 C   0  0  0  0  0  0  0  0  0  0  0  0
    4.9889    0.2900    0.0000 C   0  0  0  0  0  0  0  0  0  0  0  0
    6.2781    1.4468    0.0000 C   0  0  0  0  0  0  0  0  0  0  0  0
    5.6103    2.1911    0.0000 C   0  0  0  0  0  0  0  0  0  0  0  0
    5.9674    0.4963    0.0000 C   0  0  0  0  0  0  0  0  0  0  0  0
    5.9674   -3.4267    0.0000 C   0  0  0  0  0  0  0  0  0  0  0  0
    4.3211   -3.9648    0.0000 C   0  0  0  0  0  0  0  0  0  0  0  0
    4.3211    1.0343    0.0000 C   0  0  0  0  0  0  0  0  0  0  0  0
    4.6318    1.9849    0.0000 C   0  0  0  0  0  0  0  0  0  0  0  0
    2.8660   -0.4652    0.0000 C   0  0  0  0  0  0  0  0  0  0  0  0
    7.1859    1.8519    0.0000 C   0  0  0  0  0  0  0  0  0  0  0  0
    7.0828    2.8406    0.0000 C   0  0  0  0  0  0  0  0  0  0  0  0
    5.7074    3.9648    0.0000 C   0  0  0  0  0  0  0  0  0  0  0  0
    2.0000   -1.9652    0.0000 C   0  0  0  0  0  0  0  0  0  0  0  0
    5.1815   -3.8098    0.0000 H   0  0  0  0  0  0  0  0  0  0  0  0
    6.3815    0.0348    0.0000 H   0  0  0  0  0  0  0  0  0  0  0  0
    5.8396   -4.0334    0.0000 H   0  0  0  0  0  0  0  0  0  0  0  0
    6.5741   -3.5545    0.0000 H   0  0  0  0  0  0  0  0  0  0  0  0
    6.0953   -2.8200    0.0000 H   0  0  0  0  0  0  0  0  0  0  0  0
    3.8596   -3.5507    0.0000 H   0  0  0  0  0  0  0  0  0  0  0  0
    3.9070   -4.4262    0.0000 H   0  0  0  0  0  0  0  0  0  0  0  0
    4.7826   -4.3788    0.0000 H   0  0  0  0  0  0  0  0  0  0  0  0
    3.7144    0.9065    0.0000 H   0  0  0  0  0  0  0  0  0  0  0  0
    4.2177    2.4463    0.0000 H   0  0  0  0  0  0  0  0  0  0  0  0
    7.7228    1.5419    0.0000 H   0  0  0  0  0  0  0  0  0  0  0  0
    7.5443    3.2547    0.0000 H   0  0  0  0  0  0  0  0  0  0  0  0
    6.2747    4.2150    0.0000 H   0  0  0  0  0  0  0  0  0  0  0  0
    5.4572    4.5320    0.0000 H   0  0  0  0  0  0  0  0  0  0  0  0
    5.1402    3.7146    0.0000 H   0  0  0  0  0  0  0  0  0  0  0  0
    1.4631   -2.2752    0.0000 H   0  0  0  0  0  0  0  0  0  0  0  0
    2.3291    0.8448    0.0000 H   0  0  0  0  0  0  0  0  0  0  0  0
    3.4030    0.8448    0.0000 H   0  0  0  0  0  0  0  0  0  0  0  0
  1  2  1  0  0  0  0
  1  7  1  0  0  0  0
  1 10  1  0  0  0  0
  2  8  2  0  0  0  0
  3 13  1  0  0  0  0
  3 21  1  0  0  0  0
  3 22  1  0  0  0  0
  4 10  2  0  0  0  0
  4 23  1  0  0  0  0
  5 19  1  0  0  0  0
  5 23  2  0  0  0  0
  6 19  1  0  0  0  0
  6 40  1  0  0  0  0
  6 41  1  0  0  0  0
  7 15  1  0  0  0  0
  7 16  1  0  0  0  0
  7 24  1  0  0  0  0
  8  9  1  0  0  0  0
  8 11  1  0  0  0  0
  9 10  1  0  0  0  0
  9 19  2  0  0  0  0
 11 14  2  0  0  0  0
 11 17  1  0  0  0  0
 12 13  2  0  0  0  0
 12 14  1  0  0  0  0
 12 20  1  0  0  0  0
 13 18  1  0  0  0  0
 14 25  1  0  0  0  0
 15 26  1  0  0  0  0
 15 27  1  0  0  0  0
 15 28  1  0  0  0  0
 16 29  1  0  0  0  0
 16 30  1  0  0  0  0
 16 31  1  0  0  0  0
 17 18  2  0  0  0  0
 17 32  1  0  0  0  0
 18 33  1  0  0  0  0
 20 21  2  0  0  0  0
 20 34  1  0  0  0  0
 21 35  1  0  0  0  0
 22 36  1  0  0  0  0
 22 37  1  0  0  0  0
 22 38  1  0  0  0  0
 23 39  1  0  0  0  0
M  END
> <PUBCHEM_COMPOUND_CID>
24905221

> <PUBCHEM_COMPOUND_CANONICALIZED>
1

> <PUBCHEM_CACTVS_COMPLEXITY>
429

> <PUBCHEM_CACTVS_HBOND_ACCEPTOR>
4

> <PUBCHEM_CACTVS_HBOND_DONOR>
1

> <PUBCHEM_CACTVS_ROTATABLE_BOND>
2

> <PUBCHEM_CACTVS_SUBSKEYS>
AAADceB7gAAAAAAAAAAAAAAAAAAAAWLAAAA8QAAAAAAAAFgB/gAAHAAYAAAADCjBHwQ/8P9MEACiAzZnZACShCsxgqAd2CA4ZJiIKOLA2dGEpAhoiALIyCcQgMAOCAACAAACAAAQAAQAAAQAAAAAAAAAAA==

> <PUBCHEM_IUPAC_OPENEYE_NAME>
1-isopropyl-3-(1-methylindol-5-yl)pyrazolo[3,4-d]pyrimidin-4-amine

> <PUBCHEM_IUPAC_CAS_NAME>
3-(1-methyl-5-indolyl)-1-propan-2-yl-4-pyrazolo[3,4-d]pyrimidinamine

> <PUBCHEM_IUPAC_NAME_MARKUP>
3-(1-methylindol-5-yl)-1-propan-2-ylpyrazolo[3,4-d]pyrimidin-4-amine

> <PUBCHEM_IUPAC_NAME>
3-(1-methylindol-5-yl)-1-propan-2-ylpyrazolo[3,4-d]pyrimidin-4-amine

> <PUBCHEM_IUPAC_SYSTEMATIC_NAME>
3-(1-methylindol-5-yl)-1-propan-2-yl-pyrazolo[3,4-d]pyrimidin-4-amine

> <PUBCHEM_IUPAC_TRADITIONAL_NAME>
[1-isopropyl-3-(1-methylindol-5-yl)pyrazolo[3,4-d]pyrimidin-4-yl]amine

> <PUBCHEM_IUPAC_INCHI>
InChI=1S/C17H18N6/c1-10(2)23-17-14(16(18)19-9-20-17)15(21-23)12-4-5-13-11(8-12)6-7-22(13)3/h4-10H,1-3H3,(H2,18,19,20)

> <PUBCHEM_IUPAC_INCHIKEY>
SPUWUOGLPPVXCW-UHFFFAOYSA-N

> <PUBCHEM_XLOGP3_AA>
2.3

> <PUBCHEM_EXACT_MASS>
306.15929460

> <PUBCHEM_MOLECULAR_FORMULA>
C17H18N6

> <PUBCHEM_MOLECULAR_WEIGHT>
306.4

> <PUBCHEM_SMILES>
CC(C)N1C2=NC=NC(=C2C(=N1)C3=CC4=C(C=C3)N(C=C4)C)N

> <PUBCHEM_OPENEYE_CAN_SMILES>
CC(C)N1C2=NC=NC(=C2C(=N1)C3=CC4=C(C=C3)N(C=C4)C)N

> <PUBCHEM_OPENEYE_ISO_SMILES>
CC(C)N1C2=NC=NC(=C2C(=N1)C3=CC4=C(C=C3)N(C=C4)C)N

> <PUBCHEM_CACTVS_TPSA>
74.6

> <PUBCHEM_MONOISOTOPIC_WEIGHT>
306.15929460

> <PUBCHEM_TOTAL_CHARGE>
0

> <PUBCHEM_HEAVY_ATOM_COUNT>
23

> <PUBCHEM_ATOM_DEF_STEREO_COUNT>
0

> <PUBCHEM_ATOM_UDEF_STEREO_COUNT>
0

> <PUBCHEM_BOND_DEF_STEREO_COUNT>
0

> <PUBCHEM_BOND_UDEF_STEREO_COUNT>
0

> <PUBCHEM_ISOTOPIC_ATOM_COUNT>
0

> <PUBCHEM_COMPONENT_COUNT>
1

> <PUBCHEM_CACTVS_TAUTO_COUNT>
-1

> <PUBCHEM_COORDINATE_TYPE>
1
5
255

> <PUBCHEM_BONDANNOTATIONS>
1  10  8
1  2  8
11  14  8
11  17  8
12  13  8
12  14  8
12  20  8
13  18  8
17  18  8
2  8  8
20  21  8
3  13  8
3  21  8
4  10  8
4  23  8
5  19  8
5  23  8
8  9  8
9  10  8
9  19  8

$$$$
