49830607
  -OEChem-03202503042D

 44 48  0     0  0  0  0  0  0999 V2000
    9.2619   -2.9338    0.0000 F   0  0  0  0  0  0  0  0  0  0  0  0
    3.9639    1.2605    0.0000 N   0  0  0  0  0  0  0  0  0  0  0  0
    4.3211   -0.4343    0.0000 N   0  0  0  0  0  0  0  0  0  0  0  0
    3.7320   -2.4338    0.0000 N   0  0  0  0  0  0  0  0  0  0  0  0
    5.6103    0.7224    0.0000 N   0  0  0  0  0  0  0  0  0  0  0  0
    4.6783   -3.7386    0.0000 N   0  0  0  0  0  0  0  0  0  0  0  0
    2.0000   -3.4338    0.0000 N   0  0  0  0  0  0  0  0  0  0  0  0
    3.6067    2.9554    0.0000 C   0  0  0  0  0  0  0  0  0  0  0  0
    3.4005    3.9338    0.0000 C   0  0  0  0  0  0  0  0  0  0  0  0
    2.6562    3.2660    0.0000 C   0  0  0  0  0  0  0  0  0  0  0  0
    4.2746    2.2110    0.0000 C   0  0  0  0  0  0  0  0  0  0  0  0
    4.6318    0.5162    0.0000 C   0  0  0  0  0  0  0  0  0  0  0  0
    4.6783   -2.1291    0.0000 C   0  0  0  0  0  0  0  0  0  0  0  0
    4.9889   -1.1786    0.0000 C   0  0  0  0  0  0  0  0  0  0  0  0
    5.2619   -2.9338    0.0000 C   0  0  0  0  0  0  0  0  0  0  0  0
    3.7320   -3.4338    0.0000 C   0  0  0  0  0  0  0  0  0  0  0  0
    5.9674   -0.9724    0.0000 C   0  0  0  0  0  0  0  0  0  0  0  0
    6.2781   -0.0219    0.0000 C   0  0  0  0  0  0  0  0  0  0  0  0
    6.2619   -2.9338    0.0000 C   0  0  0  0  0  0  0  0  0  0  0  0
    2.8660   -1.9338    0.0000 C   0  0  0  0  0  0  0  0  0  0  0  0
    2.8660   -3.9338    0.0000 C   0  0  0  0  0  0  0  0  0  0  0  0
    6.7619   -2.0678    0.0000 C   0  0  0  0  0  0  0  0  0  0  0  0
    6.7619   -3.7999    0.0000 C   0  0  0  0  0  0  0  0  0  0  0  0
    2.0000   -2.4338    0.0000 C   0  0  0  0  0  0  0  0  0  0  0  0
    7.7619   -2.0678    0.0000 C   0  0  0  0  0  0  0  0  0  0  0  0
    7.7619   -3.7999    0.0000 C   0  0  0  0  0  0  0  0  0  0  0  0
    8.2619   -2.9338    0.0000 C   0  0  0  0  0  0  0  0  0  0  0  0
    3.2682    2.4360    0.0000 H   0  0  0  0  0  0  0  0  0  0  0  0
    3.9758    4.1651    0.0000 H   0  0  0  0  0  0  0  0  0  0  0  0
    3.0729    4.4602    0.0000 H   0  0  0  0  0  0  0  0  0  0  0  0
    2.1683    3.6486    0.0000 H   0  0  0  0  0  0  0  0  0  0  0  0
    2.3642    2.7191    0.0000 H   0  0  0  0  0  0  0  0  0  0  0  0
    4.8215    1.9190    0.0000 H   0  0  0  0  0  0  0  0  0  0  0  0
    4.6571    2.6990    0.0000 H   0  0  0  0  0  0  0  0  0  0  0  0
    3.3572    1.1327    0.0000 H   0  0  0  0  0  0  0  0  0  0  0  0
    6.3815   -1.4338    0.0000 H   0  0  0  0  0  0  0  0  0  0  0  0
    6.8848    0.1060    0.0000 H   0  0  0  0  0  0  0  0  0  0  0  0
    2.8660   -1.3138    0.0000 H   0  0  0  0  0  0  0  0  0  0  0  0
    2.8660   -4.5538    0.0000 H   0  0  0  0  0  0  0  0  0  0  0  0
    6.4519   -1.5309    0.0000 H   0  0  0  0  0  0  0  0  0  0  0  0
    6.4519   -4.3368    0.0000 H   0  0  0  0  0  0  0  0  0  0  0  0
    1.4631   -2.1238    0.0000 H   0  0  0  0  0  0  0  0  0  0  0  0
    8.0719   -1.5309    0.0000 H   0  0  0  0  0  0  0  0  0  0  0  0
    8.0719   -4.3368    0.0000 H   0  0  0  0  0  0  0  0  0  0  0  0
  1 27  1  0  0  0  0
  2 11  1  0  0  0  0
  2 12  1  0  0  0  0
  2 35  1  0  0  0  0
  3 12  1  0  0  0  0
  3 14  2  0  0  0  0
  4 13  1  0  0  0  0
  4 16  1  0  0  0  0
  4 20  1  0  0  0  0
  5 12  2  0  0  0  0
  5 18  1  0  0  0  0
  6 15  1  0  0  0  0
  6 16  2  0  0  0  0
  7 21  2  0  0  0  0
  7 24  1  0  0  0  0
  8  9  1  0  0  0  0
  8 10  1  0  0  0  0
  8 11  1  0  0  0  0
  8 28  1  0  0  0  0
  9 10  1  0  0  0  0
  9 29  1  0  0  0  0
  9 30  1  0  0  0  0
 10 31  1  0  0  0  0
 10 32  1  0  0  0  0
 11 33  1  0  0  0  0
 11 34  1  0  0  0  0
 13 14  1  0  0  0  0
 13 15  2  0  0  0  0
 14 17  1  0  0  0  0
 15 19  1  0  0  0  0
 16 21  1  0  0  0  0
 17 18  2  0  0  0  0
 17 36  1  0  0  0  0
 18 37  1  0  0  0  0
 19 22  2  0  0  0  0
 19 23  1  0  0  0  0
 20 24  2  0  0  0  0
 20 38  1  0  0  0  0
 21 39  1  0  0  0  0
 22 25  1  0  0  0  0
 22 40  1  0  0  0  0
 23 26  2  0  0  0  0
 23 41  1  0  0  0  0
 24 42  1  0  0  0  0
 25 27  2  0  0  0  0
 25 43  1  0  0  0  0
 26 27  1  0  0  0  0
 26 44  1  0  0  0  0
M  END
> <PUBCHEM_COMPOUND_CID>
49830607

> <PUBCHEM_COMPOUND_CANONICALIZED>
1

> <PUBCHEM_CACTVS_COMPLEXITY>
495

> <PUBCHEM_CACTVS_HBOND_ACCEPTOR>
6

> <PUBCHEM_CACTVS_HBOND_DONOR>
1

> <PUBCHEM_CACTVS_ROTATABLE_BOND>
5

> <PUBCHEM_CACTVS_SUBSKEYS>
AAADceB7gQAAAAAAAAAAAAAAGAAAAWAAAAA8WIAAAAAAAFgB/AAAHQAQAAAADQjBHww9sJ/MGACgAzZnZACCgC0xEqAJ2KA4dJiIaOLA2dGUJAhokALIyCcQgMAOAAAAAAAAAAAAAAAAAAAAAAAAAAAAAA==

> <PUBCHEM_IUPAC_OPENEYE_NAME>
N-(cyclopropylmethyl)-4-[2-(4-fluorophenyl)imidazo[1,2-a]pyrazin-3-yl]pyrimidin-2-amine

> <PUBCHEM_IUPAC_CAS_NAME>
N-(cyclopropylmethyl)-4-[2-(4-fluorophenyl)-3-imidazo[1,2-a]pyrazinyl]-2-pyrimidinamine

> <PUBCHEM_IUPAC_NAME_MARKUP>
<I>N</I>-(cyclopropylmethyl)-4-[2-(4-fluorophenyl)imidazo[1,2-a]pyrazin-3-yl]pyrimidin-2-amine

> <PUBCHEM_IUPAC_NAME>
N-(cyclopropylmethyl)-4-[2-(4-fluorophenyl)imidazo[1,2-a]pyrazin-3-yl]pyrimidin-2-amine

> <PUBCHEM_IUPAC_SYSTEMATIC_NAME>
N-(cyclopropylmethyl)-4-[2-(4-fluorophenyl)imidazo[1,2-a]pyrazin-3-yl]pyrimidin-2-amine

> <PUBCHEM_IUPAC_TRADITIONAL_NAME>
cyclopropylmethyl-[4-[2-(4-fluorophenyl)imidazo[1,2-a]pyrazin-3-yl]pyrimidin-2-yl]amine

> <PUBCHEM_IUPAC_INCHI>
InChI=1S/C20H17FN6/c21-15-5-3-14(4-6-15)18-19(27-10-9-22-12-17(27)26-18)16-7-8-23-20(25-16)24-11-13-1-2-13/h3-10,12-13H,1-2,11H2,(H,23,24,25)

> <PUBCHEM_IUPAC_INCHIKEY>
FGWOKLCRQJXPPQ-UHFFFAOYSA-N

> <PUBCHEM_XLOGP3_AA>
3.5

> <PUBCHEM_EXACT_MASS>
360.14987273

> <PUBCHEM_MOLECULAR_FORMULA>
C20H17FN6

> <PUBCHEM_MOLECULAR_WEIGHT>
360.4

> <PUBCHEM_SMILES>
C1CC1CNC2=NC=CC(=N2)C3=C(N=C4N3C=CN=C4)C5=CC=C(C=C5)F

> <PUBCHEM_OPENEYE_CAN_SMILES>
C1CC1CNC2=NC=CC(=N2)C3=C(N=C4N3C=CN=C4)C5=CC=C(C=C5)F

> <PUBCHEM_OPENEYE_ISO_SMILES>
C1CC1CNC2=NC=CC(=N2)C3=C(N=C4N3C=CN=C4)C5=CC=C(C=C5)F

> <PUBCHEM_CACTVS_TPSA>
68

> <PUBCHEM_MONOISOTOPIC_WEIGHT>
360.14987273

> <PUBCHEM_TOTAL_CHARGE>
0

> <PUBCHEM_HEAVY_ATOM_COUNT>
27

> <PUBCHEM_ATOM_DEF_STEREO_COUNT>
0

> <PUBCHEM_ATOM_UDEF_STEREO_COUNT>
0

> <PUBCHEM_BOND_DEF_STEREO_COUNT>
0

> <PUBCHEM_BOND_UDEF_STEREO_COUNT>
0

> <PUBCHEM_ISOTOPIC_ATOM_COUNT>
0

> <PUBCHEM_COMPONENT_COUNT>
1

> <PUBCHEM_CACTVS_TAUTO_COUNT>
-1

> <PUBCHEM_COORDINATE_TYPE>
1
5
255

> <PUBCHEM_BONDANNOTATIONS>
13  15  8
14  17  8
16  21  8
17  18  8
19  22  8
19  23  8
20  24  8
22  25  8
23  26  8
25  27  8
26  27  8
3  12  8
3  14  8
4  13  8
4  16  8
4  20  8
5  12  8
5  18  8
6  15  8
6  16  8
7  21  8
7  24  8

$$$$
