11596881
  -OEChem-03202504392D

 50 52  0     1  0  0  0  0  0999 V2000
   11.1787   -3.5272    0.0000 Cl  0  0  0  0  0  0  0  0  0  0  0  0
    9.4584   -2.5072    0.0000 F   0  0  0  0  0  0  0  0  0  0  0  0
    6.0010    2.5272    0.0000 O   0  0  0  0  0  0  0  0  0  0  0  0
    3.4030    2.0272    0.0000 O   0  0  0  0  0  0  0  0  0  0  0  0
    5.1350    1.0272    0.0000 N   0  0  3  0  0  0  0  0  0  0  0  0
    9.4815   -0.5074    0.0000 N   0  0  0  0  0  0  0  0  0  0  0  0
    9.4931    2.5619    0.0000 N   0  0  0  0  0  0  0  0  0  0  0  0
   10.3991    1.0064    0.0000 N   0  0  0  0  0  0  0  0  0  0  0  0
    2.5369    0.5272    0.0000 N   0  0  0  0  0  0  0  0  0  0  0  0
    6.0010    0.5272    0.0000 C   0  0  0  0  0  0  0  0  0  0  0  0
    4.2690    0.5272    0.0000 C   0  0  1  0  0  0  0  0  0  0  0  0
    6.8671    1.0272    0.0000 C   0  0  0  0  0  0  0  0  0  0  0  0
    7.7331    0.5272    0.0000 C   0  0  0  0  0  0  0  0  0  0  0  0
    6.8671    2.0272    0.0000 C   0  0  0  0  0  0  0  0  0  0  0  0
    8.5991    1.0272    0.0000 C   0  0  0  0  0  0  0  0  0  0  0  0
    5.1350    2.0272    0.0000 C   0  0  0  0  0  0  0  0  0  0  0  0
    4.2690   -0.4728    0.0000 C   0  0  0  0  0  0  0  0  0  0  0  0
    8.5991    2.0272    0.0000 C   0  0  0  0  0  0  0  0  0  0  0  0
    7.7331    2.5272    0.0000 C   0  0  0  0  0  0  0  0  0  0  0  0
    3.4030    1.0272    0.0000 C   0  0  0  0  0  0  0  0  0  0  0  0
    9.4931    0.4926    0.0000 C   0  0  0  0  0  0  0  0  0  0  0  0
   10.3417   -1.0174    0.0000 C   0  0  0  0  0  0  0  0  0  0  0  0
   10.3991    2.0480    0.0000 C   0  0  0  0  0  0  0  0  0  0  0  0
    6.0010    3.5272    0.0000 C   0  0  0  0  0  0  0  0  0  0  0  0
   10.3301   -2.0173    0.0000 C   0  0  0  0  0  0  0  0  0  0  0  0
   11.2134   -0.5274    0.0000 C   0  0  0  0  0  0  0  0  0  0  0  0
   11.1903   -2.5273    0.0000 C   0  0  0  0  0  0  0  0  0  0  0  0
   12.0736   -1.0374    0.0000 C   0  0  0  0  0  0  0  0  0  0  0  0
   12.0620   -2.0373    0.0000 C   0  0  0  0  0  0  0  0  0  0  0  0
    5.6025    0.0523    0.0000 H   0  0  0  0  0  0  0  0  0  0  0  0
    6.3996    0.0523    0.0000 H   0  0  0  0  0  0  0  0  0  0  0  0
    4.8059    0.2172    0.0000 H   0  0  0  0  0  0  0  0  0  0  0  0
    7.7331   -0.0928    0.0000 H   0  0  0  0  0  0  0  0  0  0  0  0
    5.7550    2.0272    0.0000 H   0  0  0  0  0  0  0  0  0  0  0  0
    5.1350    2.6472    0.0000 H   0  0  0  0  0  0  0  0  0  0  0  0
    4.5150    2.0272    0.0000 H   0  0  0  0  0  0  0  0  0  0  0  0
    3.6490   -0.4728    0.0000 H   0  0  0  0  0  0  0  0  0  0  0  0
    4.2690   -1.0928    0.0000 H   0  0  0  0  0  0  0  0  0  0  0  0
    4.8890   -0.4728    0.0000 H   0  0  0  0  0  0  0  0  0  0  0  0
    7.7331    3.1472    0.0000 H   0  0  0  0  0  0  0  0  0  0  0  0
    8.9410   -0.8112    0.0000 H   0  0  0  0  0  0  0  0  0  0  0  0
    2.0000    0.8372    0.0000 H   0  0  0  0  0  0  0  0  0  0  0  0
    2.5369   -0.0928    0.0000 H   0  0  0  0  0  0  0  0  0  0  0  0
   10.9349    2.3601    0.0000 H   0  0  0  0  0  0  0  0  0  0  0  0
    6.6210    3.5272    0.0000 H   0  0  0  0  0  0  0  0  0  0  0  0
    6.0010    4.1472    0.0000 H   0  0  0  0  0  0  0  0  0  0  0  0
    5.3810    3.5272    0.0000 H   0  0  0  0  0  0  0  0  0  0  0  0
   11.2206    0.0925    0.0000 H   0  0  0  0  0  0  0  0  0  0  0  0
   12.6141   -0.7336    0.0000 H   0  0  0  0  0  0  0  0  0  0  0  0
   12.5954   -2.3535    0.0000 H   0  0  0  0  0  0  0  0  0  0  0  0
  1 27  1  0  0  0  0
  2 25  1  0  0  0  0
  3 14  1  0  0  0  0
  3 24  1  0  0  0  0
  4 20  2  0  0  0  0
  5 10  1  0  0  0  0
 11  5  1  1  0  0  0
  5 16  1  0  0  0  0
  6 21  1  0  0  0  0
  6 22  1  0  0  0  0
  6 41  1  0  0  0  0
  7 18  1  0  0  0  0
  7 23  2  0  0  0  0
  8 21  2  0  0  0  0
  8 23  1  0  0  0  0
  9 20  1  0  0  0  0
  9 42  1  0  0  0  0
  9 43  1  0  0  0  0
 10 12  1  0  0  0  0
 10 30  1  0  0  0  0
 10 31  1  0  0  0  0
 11 17  1  0  0  0  0
 11 20  1  0  0  0  0
 11 32  1  0  0  0  0
 12 13  2  0  0  0  0
 12 14  1  0  0  0  0
 13 15  1  0  0  0  0
 13 33  1  0  0  0  0
 14 19  2  0  0  0  0
 15 18  2  0  0  0  0
 15 21  1  0  0  0  0
 16 34  1  0  0  0  0
 16 35  1  0  0  0  0
 16 36  1  0  0  0  0
 17 37  1  0  0  0  0
 17 38  1  0  0  0  0
 17 39  1  0  0  0  0
 18 19  1  0  0  0  0
 19 40  1  0  0  0  0
 22 25  2  0  0  0  0
 22 26  1  0  0  0  0
 23 44  1  0  0  0  0
 24 45  1  0  0  0  0
 24 46  1  0  0  0  0
 24 47  1  0  0  0  0
 25 27  1  0  0  0  0
 26 28  2  0  0  0  0
 26 48  1  0  0  0  0
 27 29  2  0  0  0  0
 28 29  1  0  0  0  0
 28 49  1  0  0  0  0
 29 50  1  0  0  0  0
M  END
> <PUBCHEM_COMPOUND_CID>
11596881

> <PUBCHEM_COMPOUND_CANONICALIZED>
1

> <PUBCHEM_CACTVS_COMPLEXITY>
559

> <PUBCHEM_CACTVS_HBOND_ACCEPTOR>
7

> <PUBCHEM_CACTVS_HBOND_DONOR>
2

> <PUBCHEM_CACTVS_ROTATABLE_BOND>
7

> <PUBCHEM_CACTVS_SUBSKEYS>
AAADceB7sQAEAAAAAAAAAAAAAAAAAAAAAAA8YIAAAAAAAACx9AAAHwIQAAAADC7Bni439vfIFACoAydzdACCiCkxJ6AJ2CG+bpiMbuLF+/uUNChu0BvI6CeQ0GMOKAACAgIKAABQAAQEBBQAAAAAAAAAAA==

> <PUBCHEM_IUPAC_OPENEYE_NAME>
(2S)-2-[[4-(3-chloro-2-fluoro-anilino)-7-methoxy-quinazolin-6-yl]methyl-methyl-amino]propanamide

> <PUBCHEM_IUPAC_CAS_NAME>
(2S)-2-[[4-(3-chloro-2-fluoroanilino)-7-methoxy-6-quinazolinyl]methyl-methylamino]propanamide

> <PUBCHEM_IUPAC_NAME_MARKUP>
(2<I>S</I>)-2-[[4-(3-chloro-2-fluoroanilino)-7-methoxyquinazolin-6-yl]methyl-methylamino]propanamide

> <PUBCHEM_IUPAC_NAME>
(2S)-2-[[4-(3-chloro-2-fluoroanilino)-7-methoxyquinazolin-6-yl]methyl-methylamino]propanamide

> <PUBCHEM_IUPAC_SYSTEMATIC_NAME>
(2S)-2-[[4-[(3-chloranyl-2-fluoranyl-phenyl)amino]-7-methoxy-quinazolin-6-yl]methyl-methyl-amino]propanamide

> <PUBCHEM_IUPAC_TRADITIONAL_NAME>
(2S)-2-[[4-(3-chloro-2-fluoro-anilino)-7-methoxy-quinazolin-6-yl]methyl-methyl-amino]propionamide

> <PUBCHEM_IUPAC_INCHI>
InChI=1S/C20H21ClFN5O2/c1-11(19(23)28)27(2)9-12-7-13-16(8-17(12)29-3)24-10-25-20(13)26-15-6-4-5-14(21)18(15)22/h4-8,10-11H,9H2,1-3H3,(H2,23,28)(H,24,25,26)/t11-/m0/s1

> <PUBCHEM_IUPAC_INCHIKEY>
LIXBPKCPMMFCNP-NSHDSACASA-N

> <PUBCHEM_XLOGP3_AA>
3.3

> <PUBCHEM_EXACT_MASS>
417.1367808

> <PUBCHEM_MOLECULAR_FORMULA>
C20H21ClFN5O2

> <PUBCHEM_MOLECULAR_WEIGHT>
417.9

> <PUBCHEM_SMILES>
C[C@@H](C(=O)N)N(C)CC1=CC2=C(C=C1OC)N=CN=C2NC3=C(C(=CC=C3)Cl)F

> <PUBCHEM_OPENEYE_CAN_SMILES>
CC(C(=O)N)N(C)CC1=CC2=C(C=C1OC)N=CN=C2NC3=C(C(=CC=C3)Cl)F

> <PUBCHEM_OPENEYE_ISO_SMILES>
C[C@@H](C(=O)N)N(C)CC1=CC2=C(C=C1OC)N=CN=C2NC3=C(C(=CC=C3)Cl)F

> <PUBCHEM_CACTVS_TPSA>
93.4

> <PUBCHEM_MONOISOTOPIC_WEIGHT>
417.1367808

> <PUBCHEM_TOTAL_CHARGE>
0

> <PUBCHEM_HEAVY_ATOM_COUNT>
29

> <PUBCHEM_ATOM_DEF_STEREO_COUNT>
1

> <PUBCHEM_ATOM_UDEF_STEREO_COUNT>
0

> <PUBCHEM_BOND_DEF_STEREO_COUNT>
0

> <PUBCHEM_BOND_UDEF_STEREO_COUNT>
0

> <PUBCHEM_ISOTOPIC_ATOM_COUNT>
0

> <PUBCHEM_COMPONENT_COUNT>
1

> <PUBCHEM_CACTVS_TAUTO_COUNT>
-1

> <PUBCHEM_COORDINATE_TYPE>
1
5
255

> <PUBCHEM_BONDANNOTATIONS>
12  13  8
12  14  8
13  15  8
14  19  8
15  18  8
15  21  8
18  19  8
22  25  8
22  26  8
25  27  8
26  28  8
27  29  8
28  29  8
11  5  5
7  18  8
7  23  8
8  21  8
8  23  8

$$$$
