44328718
  -OEChem-03202507362D

 74 76  0     1  0  0  0  0  0999 V2000
    8.6097    4.6170    0.0000 O   0  0  0  0  0  0  0  0  0  0  0  0
    7.3631   -4.7342    0.0000 O   0  0  0  0  0  0  0  0  0  0  0  0
    6.5406    7.4648    0.0000 O   0  0  0  0  0  0  0  0  0  0  0  0
    6.5406    3.9447    0.0000 N   0  0  0  0  0  0  0  0  0  0  0  0
    7.6210   -1.1379    0.0000 N   0  0  0  0  0  0  0  0  0  0  0  0
    4.6783    4.9000    0.0000 N   0  0  0  0  0  0  0  0  0  0  0  0
    8.6502   -3.5753    0.0000 N   0  0  0  0  0  0  0  0  0  0  0  0
    7.8007    6.2048    0.0000 N   0  0  0  0  0  0  0  0  0  0  0  0
    8.7013   -6.2205    0.0000 N   0  0  0  0  0  0  0  0  0  0  0  0
   12.3049   -6.3399    0.0000 N   0  0  0  0  0  0  0  0  0  0  0  0
   13.9522   -6.8752    0.0000 N   0  0  0  0  0  0  0  0  0  0  0  0
   13.5921   -5.1810    0.0000 N   0  0  0  0  0  0  0  0  0  0  0  0
    7.5699    1.5073    0.0000 C   0  0  0  0  0  0  0  0  0  0  0  0
    6.9008    2.2505    0.0000 C   0  0  0  0  0  0  0  0  0  0  0  0
    7.2609    0.5563    0.0000 C   0  0  0  0  0  0  0  0  0  0  0  0
    7.2098    3.2015    0.0000 C   0  0  0  0  0  0  0  0  0  0  0  0
    7.9300   -0.1869    0.0000 C   0  0  0  0  0  0  0  0  0  0  0  0
    6.8497    4.8957    0.0000 C   0  0  0  0  0  0  0  0  0  0  0  0
    6.2619    5.7048    0.0000 C   0  0  0  0  0  0  0  0  0  0  0  0
    8.2901   -1.8811    0.0000 C   0  0  0  0  0  0  0  0  0  0  0  0
    9.0104   -5.2695    0.0000 C   0  0  3  0  0  0  0  0  0  0  0  0
    5.2619    5.7048    0.0000 C   0  0  0  0  0  0  0  0  0  0  0  0
    9.9885   -5.0616    0.0000 C   0  0  0  0  0  0  0  0  0  0  0  0
    7.9811   -2.8321    0.0000 C   0  0  0  0  0  0  0  0  0  0  0  0
   10.6576   -5.8047    0.0000 C   0  0  0  0  0  0  0  0  0  0  0  0
    3.7320    5.2048    0.0000 C   0  0  0  0  0  0  0  0  0  0  0  0
    3.7320    6.2048    0.0000 C   0  0  0  0  0  0  0  0  0  0  0  0
    7.8007    5.2048    0.0000 C   0  0  0  0  0  0  0  0  0  0  0  0
    4.6783    6.5095    0.0000 C   0  0  0  0  0  0  0  0  0  0  0  0
    8.3412   -4.5263    0.0000 C   0  0  0  0  0  0  0  0  0  0  0  0
    6.8497    6.5138    0.0000 C   0  0  0  0  0  0  0  0  0  0  0  0
   11.6358   -5.5968    0.0000 C   0  0  0  0  0  0  0  0  0  0  0  0
    2.8660    4.7048    0.0000 C   0  0  0  0  0  0  0  0  0  0  0  0
    2.8660    6.7048    0.0000 C   0  0  0  0  0  0  0  0  0  0  0  0
    2.0000    5.2048    0.0000 C   0  0  0  0  0  0  0  0  0  0  0  0
    2.0000    6.2048    0.0000 C   0  0  0  0  0  0  0  0  0  0  0  0
   13.2831   -6.1320    0.0000 C   0  0  0  0  0  0  0  0  0  0  0  0
    8.1173    1.2163    0.0000 H   0  0  0  0  0  0  0  0  0  0  0  0
    7.9516    1.9959    0.0000 H   0  0  0  0  0  0  0  0  0  0  0  0
    6.3533    2.5416    0.0000 H   0  0  0  0  0  0  0  0  0  0  0  0
    6.5190    1.7619    0.0000 H   0  0  0  0  0  0  0  0  0  0  0  0
    6.7134    0.8473    0.0000 H   0  0  0  0  0  0  0  0  0  0  0  0
    6.8792    0.0677    0.0000 H   0  0  0  0  0  0  0  0  0  0  0  0
    7.7572    2.9105    0.0000 H   0  0  0  0  0  0  0  0  0  0  0  0
    7.5915    3.6901    0.0000 H   0  0  0  0  0  0  0  0  0  0  0  0
    8.4774   -0.4779    0.0000 H   0  0  0  0  0  0  0  0  0  0  0  0
    8.3117    0.3017    0.0000 H   0  0  0  0  0  0  0  0  0  0  0  0
    5.9342    3.8158    0.0000 H   0  0  0  0  0  0  0  0  0  0  0  0
    7.0145   -1.2668    0.0000 H   0  0  0  0  0  0  0  0  0  0  0  0
    8.8376   -2.1721    0.0000 H   0  0  0  0  0  0  0  0  0  0  0  0
    8.6718   -1.3925    0.0000 H   0  0  0  0  0  0  0  0  0  0  0  0
    9.4252   -5.7302    0.0000 H   0  0  0  0  0  0  0  0  0  0  0  0
   10.5143   -4.7330    0.0000 H   0  0  0  0  0  0  0  0  0  0  0  0
    9.7562   -4.4867    0.0000 H   0  0  0  0  0  0  0  0  0  0  0  0
    7.4337   -2.5410    0.0000 H   0  0  0  0  0  0  0  0  0  0  0  0
    7.5994   -3.3207    0.0000 H   0  0  0  0  0  0  0  0  0  0  0  0
   10.1318   -6.1333    0.0000 H   0  0  0  0  0  0  0  0  0  0  0  0
   10.8899   -6.3796    0.0000 H   0  0  0  0  0  0  0  0  0  0  0  0
    4.8709    4.3107    0.0000 H   0  0  0  0  0  0  0  0  0  0  0  0
    4.8709    7.0988    0.0000 H   0  0  0  0  0  0  0  0  0  0  0  0
    9.2567   -3.4464    0.0000 H   0  0  0  0  0  0  0  0  0  0  0  0
    8.3023    6.5692    0.0000 H   0  0  0  0  0  0  0  0  0  0  0  0
   12.1616   -5.2682    0.0000 H   0  0  0  0  0  0  0  0  0  0  0  0
   11.4035   -5.0219    0.0000 H   0  0  0  0  0  0  0  0  0  0  0  0
    9.1162   -6.6813    0.0000 H   0  0  0  0  0  0  0  0  0  0  0  0
    8.0949   -6.3494    0.0000 H   0  0  0  0  0  0  0  0  0  0  0  0
    2.8660    4.0848    0.0000 H   0  0  0  0  0  0  0  0  0  0  0  0
    2.8660    7.3248    0.0000 H   0  0  0  0  0  0  0  0  0  0  0  0
    1.4631    4.8948    0.0000 H   0  0  0  0  0  0  0  0  0  0  0  0
    1.4631    6.5148    0.0000 H   0  0  0  0  0  0  0  0  0  0  0  0
   14.5586   -6.7463    0.0000 H   0  0  0  0  0  0  0  0  0  0  0  0
   13.7606   -7.4648    0.0000 H   0  0  0  0  0  0  0  0  0  0  0  0
   14.1985   -5.0521    0.0000 H   0  0  0  0  0  0  0  0  0  0  0  0
   13.1772   -4.7202    0.0000 H   0  0  0  0  0  0  0  0  0  0  0  0
  1 28  2  0  0  0  0
  2 30  2  0  0  0  0
  3 31  2  0  0  0  0
  4 16  1  0  0  0  0
  4 18  1  0  0  0  0
  4 48  1  0  0  0  0
  5 17  1  0  0  0  0
  5 20  1  0  0  0  0
  5 49  1  0  0  0  0
  6 22  1  0  0  0  0
  6 26  1  0  0  0  0
  6 59  1  0  0  0  0
  7 24  1  0  0  0  0
  7 30  1  0  0  0  0
  7 61  1  0  0  0  0
  8 28  1  0  0  0  0
  8 31  1  0  0  0  0
  8 62  1  0  0  0  0
  9 21  1  0  0  0  0
  9 65  1  0  0  0  0
  9 66  1  0  0  0  0
 10 32  1  0  0  0  0
 10 37  2  0  0  0  0
 11 37  1  0  0  0  0
 11 71  1  0  0  0  0
 11 72  1  0  0  0  0
 12 37  1  0  0  0  0
 12 73  1  0  0  0  0
 12 74  1  0  0  0  0
 13 14  1  0  0  0  0
 13 15  1  0  0  0  0
 13 38  1  0  0  0  0
 13 39  1  0  0  0  0
 14 16  1  0  0  0  0
 14 40  1  0  0  0  0
 14 41  1  0  0  0  0
 15 17  1  0  0  0  0
 15 42  1  0  0  0  0
 15 43  1  0  0  0  0
 16 44  1  0  0  0  0
 16 45  1  0  0  0  0
 17 46  1  0  0  0  0
 17 47  1  0  0  0  0
 18 19  2  0  0  0  0
 18 28  1  0  0  0  0
 19 22  1  0  0  0  0
 19 31  1  0  0  0  0
 20 24  1  0  0  0  0
 20 50  1  0  0  0  0
 20 51  1  0  0  0  0
 21 23  1  0  0  0  0
 21 30  1  0  0  0  0
 21 52  1  0  0  0  0
 22 29  2  0  0  0  0
 23 25  1  0  0  0  0
 23 53  1  0  0  0  0
 23 54  1  0  0  0  0
 24 55  1  0  0  0  0
 24 56  1  0  0  0  0
 25 32  1  0  0  0  0
 25 57  1  0  0  0  0
 25 58  1  0  0  0  0
 26 27  1  0  0  0  0
 26 33  2  0  0  0  0
 27 29  1  0  0  0  0
 27 34  2  0  0  0  0
 29 60  1  0  0  0  0
 32 63  1  0  0  0  0
 32 64  1  0  0  0  0
 33 35  1  0  0  0  0
 33 67  1  0  0  0  0
 34 36  1  0  0  0  0
 34 68  1  0  0  0  0
 35 36  2  0  0  0  0
 35 69  1  0  0  0  0
 36 70  1  0  0  0  0
M  END
> <PUBCHEM_COMPOUND_CID>
44328718

> <PUBCHEM_COMPOUND_CANONICALIZED>
1

> <PUBCHEM_CACTVS_COMPLEXITY>
856

> <PUBCHEM_CACTVS_HBOND_ACCEPTOR>
7

> <PUBCHEM_CACTVS_HBOND_DONOR>
8

> <PUBCHEM_CACTVS_ROTATABLE_BOND>
16

> <PUBCHEM_CACTVS_SUBSKEYS>
AAADcfB78AAAAAAAAAAAAAAAAAAAAWIAAAAwAAAAAAAAAFgB8AAAHgAQAAAADCjBngQxwPLJkACoAyVydACCgCEhAiAImaG4ZNgIYPrA1bGUIAhgliDIyUcYiYCOAAAAAAACAAAAAAAAAAQAAAAAAAAAAA==

> <PUBCHEM_IUPAC_OPENEYE_NAME>
2-amino-5-guanidino-N-[2-[5-[[4-(1H-indol-2-yl)-2,5-dioxo-pyrrol-3-yl]amino]pentylamino]ethyl]pentanamide

> <PUBCHEM_IUPAC_CAS_NAME>
2-amino-5-(diaminomethylideneamino)-N-[2-[5-[[4-(1H-indol-2-yl)-2,5-dioxo-3-pyrrolyl]amino]pentylamino]ethyl]pentanamide

> <PUBCHEM_IUPAC_NAME_MARKUP>
2-amino-5-(diaminomethylideneamino)-<I>N</I>-[2-[5-[[4-(1<I>H</I>-indol-2-yl)-2,5-dioxopyrrol-3-yl]amino]pentylamino]ethyl]pentanamide

> <PUBCHEM_IUPAC_NAME>
2-amino-5-(diaminomethylideneamino)-N-[2-[5-[[4-(1H-indol-2-yl)-2,5-dioxopyrrol-3-yl]amino]pentylamino]ethyl]pentanamide

> <PUBCHEM_IUPAC_SYSTEMATIC_NAME>
2-azanyl-5-[bis(azanyl)methylideneamino]-N-[2-[5-[[4-(1H-indol-2-yl)-2,5-bis(oxidanylidene)pyrrol-3-yl]amino]pentylamino]ethyl]pentanamide

> <PUBCHEM_IUPAC_TRADITIONAL_NAME>
2-amino-5-guanidino-N-[2-[5-[[4-(1H-indol-2-yl)-2,5-diketo-3-pyrrolin-3-yl]amino]pentylamino]ethyl]valeramide

> <PUBCHEM_IUPAC_INCHI>
InChI=1S/C25H37N9O3/c26-17(8-6-12-32-25(27)28)22(35)31-14-13-29-10-4-1-5-11-30-21-20(23(36)34-24(21)37)19-15-16-7-2-3-9-18(16)33-19/h2-3,7,9,15,17,29,33H,1,4-6,8,10-14,26H2,(H,31,35)(H4,27,28,32)(H2,30,34,36,37)

> <PUBCHEM_IUPAC_INCHIKEY>
OZZFGLBTVSDDKF-UHFFFAOYSA-N

> <PUBCHEM_XLOGP3_AA>
-0.5

> <PUBCHEM_EXACT_MASS>
511.30193608

> <PUBCHEM_MOLECULAR_FORMULA>
C25H37N9O3

> <PUBCHEM_MOLECULAR_WEIGHT>
511.6

> <PUBCHEM_SMILES>
C1=CC=C2C(=C1)C=C(N2)C3=C(C(=O)NC3=O)NCCCCCNCCNC(=O)C(CCCN=C(N)N)N

> <PUBCHEM_OPENEYE_CAN_SMILES>
C1=CC=C2C(=C1)C=C(N2)C3=C(C(=O)NC3=O)NCCCCCNCCNC(=O)C(CCCN=C(N)N)N

> <PUBCHEM_OPENEYE_ISO_SMILES>
C1=CC=C2C(=C1)C=C(N2)C3=C(C(=O)NC3=O)NCCCCCNCCNC(=O)C(CCCN=C(N)N)N

> <PUBCHEM_CACTVS_TPSA>
206

> <PUBCHEM_MONOISOTOPIC_WEIGHT>
511.30193608

> <PUBCHEM_TOTAL_CHARGE>
0

> <PUBCHEM_HEAVY_ATOM_COUNT>
37

> <PUBCHEM_ATOM_DEF_STEREO_COUNT>
0

> <PUBCHEM_ATOM_UDEF_STEREO_COUNT>
1

> <PUBCHEM_BOND_DEF_STEREO_COUNT>
0

> <PUBCHEM_BOND_UDEF_STEREO_COUNT>
0

> <PUBCHEM_ISOTOPIC_ATOM_COUNT>
0

> <PUBCHEM_COMPONENT_COUNT>
1

> <PUBCHEM_CACTVS_TAUTO_COUNT>
-1

> <PUBCHEM_COORDINATE_TYPE>
1
5
255

> <PUBCHEM_BONDANNOTATIONS>
22  29  8
26  27  8
26  33  8
27  29  8
27  34  8
33  35  8
34  36  8
35  36  8
6  22  8
6  26  8
21  9  3

$$$$
