24905198
  -OEChem-03192523362D

 50 52  0     1  0  0  0  0  0999 V2000
    7.2566    0.5504    0.0000 O   0  0  0  0  0  0  0  0  0  0  0  0
    4.8959    4.4781    0.0000 O   0  0  0  0  0  0  0  0  0  0  0  0
    4.6783   -3.3726    0.0000 N   0  0  0  0  0  0  0  0  0  0  0  0
    5.2619   -2.5678    0.0000 N   0  0  0  0  0  0  0  0  0  0  0  0
    5.9209    2.0390    0.0000 N   0  0  0  0  0  0  0  0  0  0  0  0
    2.8660   -3.5678    0.0000 N   0  0  0  0  0  0  0  0  0  0  0  0
    2.0000   -2.0678    0.0000 N   0  0  0  0  0  0  0  0  0  0  0  0
    2.8660   -0.5679    0.0000 N   0  0  0  0  0  0  0  0  0  0  0  0
    4.9889   -4.3231    0.0000 C   0  0  0  0  0  0  0  0  0  0  0  0
    4.6783   -1.7631    0.0000 C   0  0  0  0  0  0  0  0  0  0  0  0
    3.7320   -2.0678    0.0000 C   0  0  0  0  0  0  0  0  0  0  0  0
    3.7320   -3.0678    0.0000 C   0  0  0  0  0  0  0  0  0  0  0  0
    4.9889   -0.8126    0.0000 C   0  0  0  0  0  0  0  0  0  0  0  0
    5.9674   -4.5293    0.0000 C   0  0  0  0  0  0  0  0  0  0  0  0
    4.3211   -5.0674    0.0000 C   0  0  0  0  0  0  0  0  0  0  0  0
    5.2531    2.7833    0.0000 C   0  0  3  0  0  0  0  0  0  0  0  0
    5.6103    1.0884    0.0000 C   0  0  0  0  0  0  0  0  0  0  0  0
    5.9674   -0.6064    0.0000 C   0  0  0  0  0  0  0  0  0  0  0  0
    4.3211   -0.0683    0.0000 C   0  0  0  0  0  0  0  0  0  0  0  0
    2.8660   -1.5678    0.0000 C   0  0  0  0  0  0  0  0  0  0  0  0
    6.2781    0.3441    0.0000 C   0  0  0  0  0  0  0  0  0  0  0  0
    4.6318    0.8822    0.0000 C   0  0  0  0  0  0  0  0  0  0  0  0
    5.5637    3.7338    0.0000 C   0  0  0  0  0  0  0  0  0  0  0  0
    4.2746    2.5770    0.0000 C   0  0  0  0  0  0  0  0  0  0  0  0
    2.0000   -3.0678    0.0000 C   0  0  0  0  0  0  0  0  0  0  0  0
    7.9244   -0.1939    0.0000 C   0  0  0  0  0  0  0  0  0  0  0  0
    5.4030   -3.8616    0.0000 H   0  0  0  0  0  0  0  0  0  0  0  0
    5.0605    2.1939    0.0000 H   0  0  0  0  0  0  0  0  0  0  0  0
    5.8396   -5.1360    0.0000 H   0  0  0  0  0  0  0  0  0  0  0  0
    6.5741   -4.6572    0.0000 H   0  0  0  0  0  0  0  0  0  0  0  0
    6.0953   -3.9226    0.0000 H   0  0  0  0  0  0  0  0  0  0  0  0
    3.8596   -4.6533    0.0000 H   0  0  0  0  0  0  0  0  0  0  0  0
    3.9070   -5.5289    0.0000 H   0  0  0  0  0  0  0  0  0  0  0  0
    4.7826   -5.4815    0.0000 H   0  0  0  0  0  0  0  0  0  0  0  0
    6.3815   -1.0678    0.0000 H   0  0  0  0  0  0  0  0  0  0  0  0
    3.7144   -0.1962    0.0000 H   0  0  0  0  0  0  0  0  0  0  0  0
    6.5276    2.1668    0.0000 H   0  0  0  0  0  0  0  0  0  0  0  0
    4.2177    1.3437    0.0000 H   0  0  0  0  0  0  0  0  0  0  0  0
    6.1107    3.4418    0.0000 H   0  0  0  0  0  0  0  0  0  0  0  0
    5.9463    4.2217    0.0000 H   0  0  0  0  0  0  0  0  0  0  0  0
    4.1467    3.1837    0.0000 H   0  0  0  0  0  0  0  0  0  0  0  0
    3.6679    2.4492    0.0000 H   0  0  0  0  0  0  0  0  0  0  0  0
    4.4024    1.9704    0.0000 H   0  0  0  0  0  0  0  0  0  0  0  0
    1.4631   -3.3778    0.0000 H   0  0  0  0  0  0  0  0  0  0  0  0
    2.3291   -0.2579    0.0000 H   0  0  0  0  0  0  0  0  0  0  0  0
    3.4030   -0.2579    0.0000 H   0  0  0  0  0  0  0  0  0  0  0  0
    5.0885    5.0674    0.0000 H   0  0  0  0  0  0  0  0  0  0  0  0
    7.4630   -0.6080    0.0000 H   0  0  0  0  0  0  0  0  0  0  0  0
    8.3385   -0.6554    0.0000 H   0  0  0  0  0  0  0  0  0  0  0  0
    8.3859    0.2201    0.0000 H   0  0  0  0  0  0  0  0  0  0  0  0
  1 21  1  0  0  0  0
  1 26  1  0  0  0  0
  2 23  1  0  0  0  0
  2 47  1  0  0  0  0
  3  4  1  0  0  0  0
  3  9  1  0  0  0  0
  3 12  1  0  0  0  0
  4 10  2  0  0  0  0
  5 16  1  0  0  0  0
  5 17  1  0  0  0  0
  5 37  1  0  0  0  0
  6 12  2  0  0  0  0
  6 25  1  0  0  0  0
  7 20  1  0  0  0  0
  7 25  2  0  0  0  0
  8 20  1  0  0  0  0
  8 45  1  0  0  0  0
  8 46  1  0  0  0  0
  9 14  1  0  0  0  0
  9 15  1  0  0  0  0
  9 27  1  0  0  0  0
 10 11  1  0  0  0  0
 10 13  1  0  0  0  0
 11 12  1  0  0  0  0
 11 20  2  0  0  0  0
 13 18  2  0  0  0  0
 13 19  1  0  0  0  0
 14 29  1  0  0  0  0
 14 30  1  0  0  0  0
 14 31  1  0  0  0  0
 15 32  1  0  0  0  0
 15 33  1  0  0  0  0
 15 34  1  0  0  0  0
 16 23  1  0  0  0  0
 16 24  1  0  0  0  0
 16 28  1  0  0  0  0
 17 21  2  0  0  0  0
 17 22  1  0  0  0  0
 18 21  1  0  0  0  0
 18 35  1  0  0  0  0
 19 22  2  0  0  0  0
 19 36  1  0  0  0  0
 22 38  1  0  0  0  0
 23 39  1  0  0  0  0
 23 40  1  0  0  0  0
 24 41  1  0  0  0  0
 24 42  1  0  0  0  0
 24 43  1  0  0  0  0
 25 44  1  0  0  0  0
 26 48  1  0  0  0  0
 26 49  1  0  0  0  0
 26 50  1  0  0  0  0
M  END
> <PUBCHEM_COMPOUND_CID>
24905198

> <PUBCHEM_COMPOUND_CANONICALIZED>
1

> <PUBCHEM_CACTVS_COMPLEXITY>
453

> <PUBCHEM_CACTVS_HBOND_ACCEPTOR>
7

> <PUBCHEM_CACTVS_HBOND_DONOR>
3

> <PUBCHEM_CACTVS_ROTATABLE_BOND>
6

> <PUBCHEM_CACTVS_SUBSKEYS>
AAADceB7sAAAAAAAAAAAAAAAAAAAAWAAAAA8QAAAAAAAAFgB/AAAHgAYCAAADCzhnwY39t7IFgCiAyZjZACSjCsxoqAd2KAvbJiOPqLE+duF9Chs2BPY6CewwPAOCAABAAAAEAAQAAIAAAAgAAAAAAAAAA==

> <PUBCHEM_IUPAC_OPENEYE_NAME>
2-[4-(4-amino-1-isopropyl-pyrazolo[3,4-d]pyrimidin-3-yl)-2-methoxy-anilino]propan-1-ol

> <PUBCHEM_IUPAC_CAS_NAME>
2-[4-(4-amino-1-propan-2-yl-3-pyrazolo[3,4-d]pyrimidinyl)-2-methoxyanilino]-1-propanol

> <PUBCHEM_IUPAC_NAME_MARKUP>
2-[4-(4-amino-1-propan-2-ylpyrazolo[3,4-d]pyrimidin-3-yl)-2-methoxyanilino]propan-1-ol

> <PUBCHEM_IUPAC_NAME>
2-[4-(4-amino-1-propan-2-ylpyrazolo[3,4-d]pyrimidin-3-yl)-2-methoxyanilino]propan-1-ol

> <PUBCHEM_IUPAC_SYSTEMATIC_NAME>
2-[[4-(4-azanyl-1-propan-2-yl-pyrazolo[3,4-d]pyrimidin-3-yl)-2-methoxy-phenyl]amino]propan-1-ol

> <PUBCHEM_IUPAC_TRADITIONAL_NAME>
2-[4-(4-amino-1-isopropyl-pyrazolo[3,4-d]pyrimidin-3-yl)-2-methoxy-anilino]propan-1-ol

> <PUBCHEM_IUPAC_INCHI>
InChI=1S/C18H24N6O2/c1-10(2)24-18-15(17(19)20-9-21-18)16(23-24)12-5-6-13(14(7-12)26-4)22-11(3)8-25/h5-7,9-11,22,25H,8H2,1-4H3,(H2,19,20,21)

> <PUBCHEM_IUPAC_INCHIKEY>
KAANTKMOHHINMM-UHFFFAOYSA-N

> <PUBCHEM_XLOGP3_AA>
1.9

> <PUBCHEM_EXACT_MASS>
356.19607403

> <PUBCHEM_MOLECULAR_FORMULA>
C18H24N6O2

> <PUBCHEM_MOLECULAR_WEIGHT>
356.4

> <PUBCHEM_SMILES>
CC(C)N1C2=NC=NC(=C2C(=N1)C3=CC(=C(C=C3)NC(C)CO)OC)N

> <PUBCHEM_OPENEYE_CAN_SMILES>
CC(C)N1C2=NC=NC(=C2C(=N1)C3=CC(=C(C=C3)NC(C)CO)OC)N

> <PUBCHEM_OPENEYE_ISO_SMILES>
CC(C)N1C2=NC=NC(=C2C(=N1)C3=CC(=C(C=C3)NC(C)CO)OC)N

> <PUBCHEM_CACTVS_TPSA>
111

> <PUBCHEM_MONOISOTOPIC_WEIGHT>
356.19607403

> <PUBCHEM_TOTAL_CHARGE>
0

> <PUBCHEM_HEAVY_ATOM_COUNT>
26

> <PUBCHEM_ATOM_DEF_STEREO_COUNT>
0

> <PUBCHEM_ATOM_UDEF_STEREO_COUNT>
1

> <PUBCHEM_BOND_DEF_STEREO_COUNT>
0

> <PUBCHEM_BOND_UDEF_STEREO_COUNT>
0

> <PUBCHEM_ISOTOPIC_ATOM_COUNT>
0

> <PUBCHEM_COMPONENT_COUNT>
1

> <PUBCHEM_CACTVS_TAUTO_COUNT>
-1

> <PUBCHEM_COORDINATE_TYPE>
1
5
255

> <PUBCHEM_BONDANNOTATIONS>
10  11  8
11  12  8
11  20  8
13  18  8
13  19  8
16  24  3
17  21  8
17  22  8
18  21  8
19  22  8
3  12  8
3  4  8
4  10  8
6  12  8
6  25  8
7  20  8
7  25  8

$$$$
