3662552
  -OEChem-03202503142D

 51 54  0     0  0  0  0  0  0999 V2000
    8.0622   -0.6072    0.0000 O   0  0  0  0  0  0  0  0  0  0  0  0
    9.5930    4.1917    0.0000 O   0  0  0  0  0  0  0  0  0  0  0  0
    3.7320   -3.1072    0.0000 O   0  0  0  0  0  0  0  0  0  0  0  0
    8.9562    1.1716    0.0000 N   0  0  0  0  0  0  0  0  0  0  0  0
    7.6962    2.4316    0.0000 N   0  0  0  0  0  0  0  0  0  0  0  0
    6.6962    2.4316    0.0000 N   0  0  0  0  0  0  0  0  0  0  0  0
    6.3871    1.4806    0.0000 N   0  0  0  0  0  0  0  0  0  0  0  0
    6.3301   -0.6072    0.0000 N   0  0  0  0  0  0  0  0  0  0  0  0
    9.2839    3.2407    0.0000 N   0  0  0  0  0  0  0  0  0  0  0  0
    8.7839    4.7795    0.0000 N   0  0  0  0  0  0  0  0  0  0  0  0
    7.0239    4.5007    0.0000 N   0  0  0  0  0  0  0  0  0  0  0  0
    6.3301   -1.6072    0.0000 N   0  0  0  0  0  0  0  0  0  0  0  0
   10.2652    0.2205    0.0000 C   0  0  0  0  0  0  0  0  0  0  0  0
   10.5743    1.1716    0.0000 C   0  0  0  0  0  0  0  0  0  0  0  0
    9.2652    0.2205    0.0000 C   0  0  0  0  0  0  0  0  0  0  0  0
    9.7652    1.7594    0.0000 C   0  0  0  0  0  0  0  0  0  0  0  0
    8.0052    1.4806    0.0000 C   0  0  0  0  0  0  0  0  0  0  0  0
    7.1962    0.8928    0.0000 C   0  0  0  0  0  0  0  0  0  0  0  0
    8.2839    3.2407    0.0000 C   0  0  0  0  0  0  0  0  0  0  0  0
    7.1962   -0.1072    0.0000 C   0  0  0  0  0  0  0  0  0  0  0  0
    7.9749    4.1917    0.0000 C   0  0  0  0  0  0  0  0  0  0  0  0
    5.4641   -3.1072    0.0000 C   0  0  0  0  0  0  0  0  0  0  0  0
    5.4641   -2.1072    0.0000 C   0  0  0  0  0  0  0  0  0  0  0  0
    4.5981   -3.6072    0.0000 C   0  0  0  0  0  0  0  0  0  0  0  0
    6.3301   -3.6072    0.0000 C   0  0  0  0  0  0  0  0  0  0  0  0
    4.5981   -4.6072    0.0000 C   0  0  0  0  0  0  0  0  0  0  0  0
    6.3301   -4.6072    0.0000 C   0  0  0  0  0  0  0  0  0  0  0  0
    5.4641   -5.1072    0.0000 C   0  0  0  0  0  0  0  0  0  0  0  0
    2.8660   -3.6072    0.0000 C   0  0  0  0  0  0  0  0  0  0  0  0
    2.0000   -3.1072    0.0000 C   0  0  0  0  0  0  0  0  0  0  0  0
   10.2004   -0.3961    0.0000 H   0  0  0  0  0  0  0  0  0  0  0  0
   10.8717    0.0916    0.0000 H   0  0  0  0  0  0  0  0  0  0  0  0
   11.1407    0.9194    0.0000 H   0  0  0  0  0  0  0  0  0  0  0  0
   10.8843    1.7085    0.0000 H   0  0  0  0  0  0  0  0  0  0  0  0
    8.6588    0.0916    0.0000 H   0  0  0  0  0  0  0  0  0  0  0  0
    9.3300   -0.3961    0.0000 H   0  0  0  0  0  0  0  0  0  0  0  0
   10.1801    2.2201    0.0000 H   0  0  0  0  0  0  0  0  0  0  0  0
    9.3504    2.2201    0.0000 H   0  0  0  0  0  0  0  0  0  0  0  0
    5.7932   -0.2972    0.0000 H   0  0  0  0  0  0  0  0  0  0  0  0
    6.8950    5.1072    0.0000 H   0  0  0  0  0  0  0  0  0  0  0  0
    6.5631    4.0859    0.0000 H   0  0  0  0  0  0  0  0  0  0  0  0
    4.9272   -1.7972    0.0000 H   0  0  0  0  0  0  0  0  0  0  0  0
    6.8671   -3.2972    0.0000 H   0  0  0  0  0  0  0  0  0  0  0  0
    4.0611   -4.9172    0.0000 H   0  0  0  0  0  0  0  0  0  0  0  0
    6.8671   -4.9172    0.0000 H   0  0  0  0  0  0  0  0  0  0  0  0
    5.4641   -5.7272    0.0000 H   0  0  0  0  0  0  0  0  0  0  0  0
    2.4675   -4.0821    0.0000 H   0  0  0  0  0  0  0  0  0  0  0  0
    3.2646   -4.0821    0.0000 H   0  0  0  0  0  0  0  0  0  0  0  0
    2.3100   -2.5703    0.0000 H   0  0  0  0  0  0  0  0  0  0  0  0
    1.4631   -2.7972    0.0000 H   0  0  0  0  0  0  0  0  0  0  0  0
    1.6900   -3.6441    0.0000 H   0  0  0  0  0  0  0  0  0  0  0  0
  1 20  2  0  0  0  0
  2  9  1  0  0  0  0
  2 10  1  0  0  0  0
  3 24  1  0  0  0  0
  3 29  1  0  0  0  0
  4 15  1  0  0  0  0
  4 16  1  0  0  0  0
  4 17  1  0  0  0  0
  5  6  1  0  0  0  0
  5 17  1  0  0  0  0
  5 19  1  0  0  0  0
  6  7  2  0  0  0  0
  7 18  1  0  0  0  0
  8 12  1  0  0  0  0
  8 20  1  0  0  0  0
  8 39  1  0  0  0  0
  9 19  2  0  0  0  0
 10 21  2  0  0  0  0
 11 21  1  0  0  0  0
 11 40  1  0  0  0  0
 11 41  1  0  0  0  0
 12 23  2  3  0  0  0
 13 14  1  0  0  0  0
 13 15  1  0  0  0  0
 13 31  1  0  0  0  0
 13 32  1  0  0  0  0
 14 16  1  0  0  0  0
 14 33  1  0  0  0  0
 14 34  1  0  0  0  0
 15 35  1  0  0  0  0
 15 36  1  0  0  0  0
 16 37  1  0  0  0  0
 16 38  1  0  0  0  0
 17 18  2  0  0  0  0
 18 20  1  0  0  0  0
 19 21  1  0  0  0  0
 22 23  1  0  0  0  0
 22 24  1  0  0  0  0
 22 25  2  0  0  0  0
 23 42  1  0  0  0  0
 24 26  2  0  0  0  0
 25 27  1  0  0  0  0
 25 43  1  0  0  0  0
 26 28  1  0  0  0  0
 26 44  1  0  0  0  0
 27 28  2  0  0  0  0
 27 45  1  0  0  0  0
 28 46  1  0  0  0  0
 29 30  1  0  0  0  0
 29 47  1  0  0  0  0
 29 48  1  0  0  0  0
 30 49  1  0  0  0  0
 30 50  1  0  0  0  0
 30 51  1  0  0  0  0
M  END
> <PUBCHEM_COMPOUND_CID>
3662552

> <PUBCHEM_COMPOUND_CANONICALIZED>
1

> <PUBCHEM_CACTVS_COMPLEXITY>
603

> <PUBCHEM_CACTVS_HBOND_ACCEPTOR>
10

> <PUBCHEM_CACTVS_HBOND_DONOR>
2

> <PUBCHEM_CACTVS_ROTATABLE_BOND>
7

> <PUBCHEM_CACTVS_SUBSKEYS>
AAADceB78AAAAAAAAAAAAAAAAAAAAWLFgAAwAAAAAAAAAAAB8AAAHgAcAAAADAzhngYztpN6BACrAzdzdgCSDCcnMAA/mAGuXNqMZurE+RqWOKCsyJPIqGeAwCAOAAAAAAAIAAAAAAAAABAAAAAAAAAAAA==

> <PUBCHEM_IUPAC_OPENEYE_NAME>
1-(4-amino-1,2,5-oxadiazol-3-yl)-N-[(2-ethoxyphenyl)methyleneamino]-5-pyrrolidin-1-yl-triazole-4-carboxamide

> <PUBCHEM_IUPAC_CAS_NAME>
1-(4-amino-1,2,5-oxadiazol-3-yl)-N-[(2-ethoxyphenyl)methylideneamino]-5-(1-pyrrolidinyl)-4-triazolecarboxamide

> <PUBCHEM_IUPAC_NAME_MARKUP>
1-(4-amino-1,2,5-oxadiazol-3-yl)-<I>N</I>-[(2-ethoxyphenyl)methylideneamino]-5-pyrrolidin-1-yltriazole-4-carboxamide

> <PUBCHEM_IUPAC_NAME>
1-(4-amino-1,2,5-oxadiazol-3-yl)-N-[(2-ethoxyphenyl)methylideneamino]-5-pyrrolidin-1-yltriazole-4-carboxamide

> <PUBCHEM_IUPAC_SYSTEMATIC_NAME>
1-(4-azanyl-1,2,5-oxadiazol-3-yl)-N-[(2-ethoxyphenyl)methylideneamino]-5-pyrrolidin-1-yl-1,2,3-triazole-4-carboxamide

> <PUBCHEM_IUPAC_TRADITIONAL_NAME>
1-(4-aminofurazan-3-yl)-N-[(2-ethoxybenzylidene)amino]-5-pyrrolidino-triazole-4-carboxamide

> <PUBCHEM_IUPAC_INCHI>
InChI=1S/C18H21N9O3/c1-2-29-13-8-4-3-7-12(13)11-20-22-17(28)14-18(26-9-5-6-10-26)27(25-21-14)16-15(19)23-30-24-16/h3-4,7-8,11H,2,5-6,9-10H2,1H3,(H2,19,23)(H,22,28)

> <PUBCHEM_IUPAC_INCHIKEY>
WLLUQXGGNFUQGM-UHFFFAOYSA-N

> <PUBCHEM_XLOGP3_AA>
1.7

> <PUBCHEM_EXACT_MASS>
411.17673557

> <PUBCHEM_MOLECULAR_FORMULA>
C18H21N9O3

> <PUBCHEM_MOLECULAR_WEIGHT>
411.4

> <PUBCHEM_SMILES>
CCOC1=CC=CC=C1C=NNC(=O)C2=C(N(N=N2)C3=NON=C3N)N4CCCC4

> <PUBCHEM_OPENEYE_CAN_SMILES>
CCOC1=CC=CC=C1C=NNC(=O)C2=C(N(N=N2)C3=NON=C3N)N4CCCC4

> <PUBCHEM_OPENEYE_ISO_SMILES>
CCOC1=CC=CC=C1C=NNC(=O)C2=C(N(N=N2)C3=NON=C3N)N4CCCC4

> <PUBCHEM_CACTVS_TPSA>
150

> <PUBCHEM_MONOISOTOPIC_WEIGHT>
411.17673557

> <PUBCHEM_TOTAL_CHARGE>
0

> <PUBCHEM_HEAVY_ATOM_COUNT>
30

> <PUBCHEM_ATOM_DEF_STEREO_COUNT>
0

> <PUBCHEM_ATOM_UDEF_STEREO_COUNT>
0

> <PUBCHEM_BOND_DEF_STEREO_COUNT>
0

> <PUBCHEM_BOND_UDEF_STEREO_COUNT>
1

> <PUBCHEM_ISOTOPIC_ATOM_COUNT>
0

> <PUBCHEM_COMPONENT_COUNT>
1

> <PUBCHEM_CACTVS_TAUTO_COUNT>
-1

> <PUBCHEM_COORDINATE_TYPE>
1
5
255

> <PUBCHEM_BONDANNOTATIONS>
10  21  8
12  23  1
17  18  8
19  21  8
2  10  8
2  9  8
22  24  8
22  25  8
24  26  8
25  27  8
26  28  8
27  28  8
5  17  8
5  6  8
6  7  8
7  18  8
9  19  8

$$$$
