44557921
  -OEChem-03202504502D

 42 44  0     0  0  0  0  0  0999 V2000
    4.5981   -0.2500    0.0000 S   0  0  0  0  0  0  0  0  0  0  0  0
    4.0981    0.6160    0.0000 O   0  0  0  0  0  0  0  0  0  0  0  0
    5.0981   -1.1160    0.0000 O   0  0  0  0  0  0  0  0  0  0  0  0
    3.7320   -0.7500    0.0000 N   0  0  0  0  0  0  0  0  0  0  0  0
    9.7942   -1.2500    0.0000 N   0  0  0  0  0  0  0  0  0  0  0  0
    6.3301    1.7500    0.0000 N   0  0  0  0  0  0  0  0  0  0  0  0
   10.7404    0.0547    0.0000 N   0  0  0  0  0  0  0  0  0  0  0  0
   10.7404   -1.5547    0.0000 N   0  0  0  0  0  0  0  0  0  0  0  0
   12.3241   -0.7500    0.0000 N   0  0  0  0  0  0  0  0  0  0  0  0
    2.8660   -0.2500    0.0000 C   0  0  0  0  0  0  0  0  0  0  0  0
    2.0000    0.2500    0.0000 C   0  0  0  0  0  0  0  0  0  0  0  0
    2.3660   -1.1160    0.0000 C   0  0  0  0  0  0  0  0  0  0  0  0
    3.3660    0.6160    0.0000 C   0  0  0  0  0  0  0  0  0  0  0  0
    5.4641    0.2500    0.0000 C   0  0  0  0  0  0  0  0  0  0  0  0
    6.3301   -0.2500    0.0000 C   0  0  0  0  0  0  0  0  0  0  0  0
    7.1962    0.2500    0.0000 C   0  0  0  0  0  0  0  0  0  0  0  0
    8.0622   -0.2500    0.0000 C   0  0  0  0  0  0  0  0  0  0  0  0
    5.4641    1.2500    0.0000 C   0  0  0  0  0  0  0  0  0  0  0  0
    7.1962    1.2500    0.0000 C   0  0  0  0  0  0  0  0  0  0  0  0
    8.9282    0.2500    0.0000 C   0  0  0  0  0  0  0  0  0  0  0  0
    8.0622   -1.2500    0.0000 C   0  0  0  0  0  0  0  0  0  0  0  0
    9.7942   -0.2500    0.0000 C   0  0  0  0  0  0  0  0  0  0  0  0
    8.9282   -1.7500    0.0000 C   0  0  0  0  0  0  0  0  0  0  0  0
   11.3241   -0.7500    0.0000 C   0  0  0  0  0  0  0  0  0  0  0  0
    3.7320   -1.3700    0.0000 H   0  0  0  0  0  0  0  0  0  0  0  0
    2.3100    0.7869    0.0000 H   0  0  0  0  0  0  0  0  0  0  0  0
    1.4631    0.5600    0.0000 H   0  0  0  0  0  0  0  0  0  0  0  0
    1.6900   -0.2869    0.0000 H   0  0  0  0  0  0  0  0  0  0  0  0
    1.8291   -0.8060    0.0000 H   0  0  0  0  0  0  0  0  0  0  0  0
    2.0560   -1.6530    0.0000 H   0  0  0  0  0  0  0  0  0  0  0  0
    2.9030   -1.4260    0.0000 H   0  0  0  0  0  0  0  0  0  0  0  0
    3.9030    0.3060    0.0000 H   0  0  0  0  0  0  0  0  0  0  0  0
    3.6760    1.1530    0.0000 H   0  0  0  0  0  0  0  0  0  0  0  0
    2.8291    0.9260    0.0000 H   0  0  0  0  0  0  0  0  0  0  0  0
    6.3301   -0.8700    0.0000 H   0  0  0  0  0  0  0  0  0  0  0  0
    4.9272    1.5600    0.0000 H   0  0  0  0  0  0  0  0  0  0  0  0
    7.7331    1.5600    0.0000 H   0  0  0  0  0  0  0  0  0  0  0  0
    8.9282    0.8700    0.0000 H   0  0  0  0  0  0  0  0  0  0  0  0
    7.5252   -1.5600    0.0000 H   0  0  0  0  0  0  0  0  0  0  0  0
    8.9282   -2.3700    0.0000 H   0  0  0  0  0  0  0  0  0  0  0  0
   12.6341   -1.2869    0.0000 H   0  0  0  0  0  0  0  0  0  0  0  0
   12.6341   -0.2131    0.0000 H   0  0  0  0  0  0  0  0  0  0  0  0
  1  2  2  0  0  0  0
  1  3  2  0  0  0  0
  1  4  1  0  0  0  0
  1 14  1  0  0  0  0
  4 10  1  0  0  0  0
  4 25  1  0  0  0  0
  5  8  1  0  0  0  0
  5 22  1  0  0  0  0
  5 23  1  0  0  0  0
  6 18  1  0  0  0  0
  6 19  2  0  0  0  0
  7 22  2  0  0  0  0
  7 24  1  0  0  0  0
  8 24  2  0  0  0  0
  9 24  1  0  0  0  0
  9 41  1  0  0  0  0
  9 42  1  0  0  0  0
 10 11  1  0  0  0  0
 10 12  1  0  0  0  0
 10 13  1  0  0  0  0
 11 26  1  0  0  0  0
 11 27  1  0  0  0  0
 11 28  1  0  0  0  0
 12 29  1  0  0  0  0
 12 30  1  0  0  0  0
 12 31  1  0  0  0  0
 13 32  1  0  0  0  0
 13 33  1  0  0  0  0
 13 34  1  0  0  0  0
 14 15  1  0  0  0  0
 14 18  2  0  0  0  0
 15 16  2  0  0  0  0
 15 35  1  0  0  0  0
 16 17  1  0  0  0  0
 16 19  1  0  0  0  0
 17 20  2  0  0  0  0
 17 21  1  0  0  0  0
 18 36  1  0  0  0  0
 19 37  1  0  0  0  0
 20 22  1  0  0  0  0
 20 38  1  0  0  0  0
 21 23  2  0  0  0  0
 21 39  1  0  0  0  0
 23 40  1  0  0  0  0
M  END
> <PUBCHEM_COMPOUND_CID>
44557921

> <PUBCHEM_COMPOUND_CANONICALIZED>
1

> <PUBCHEM_CACTVS_COMPLEXITY>
543

> <PUBCHEM_CACTVS_HBOND_ACCEPTOR>
7

> <PUBCHEM_CACTVS_HBOND_DONOR>
2

> <PUBCHEM_CACTVS_ROTATABLE_BOND>
4

> <PUBCHEM_CACTVS_SUBSKEYS>
AAADceBzsABAAAAAAAAAAAAAAAAAAWAAAAAsWAAAAAAAAFgB+AAAHAQYQAAADIjBWwQ/sZ5IEAKiAjJnZHDShDsxgqAd2Dw4ZJiIKOLAmZGEoAh4mALIyCcQgAAOgAAAAAAAAAAAAAAAAAAAAAAAAAAAAA==

> <PUBCHEM_IUPAC_OPENEYE_NAME>
5-(2-amino-[1,2,4]triazolo[1,5-a]pyridin-7-yl)-N-tert-butyl-pyridine-3-sulfonamide

> <PUBCHEM_IUPAC_CAS_NAME>
5-(2-amino-[1,2,4]triazolo[1,5-a]pyridin-7-yl)-N-tert-butyl-3-pyridinesulfonamide

> <PUBCHEM_IUPAC_NAME_MARKUP>
5-(2-amino-[1,2,4]triazolo[1,5-a]pyridin-7-yl)-<I>N</I>-<I>tert</I>-butylpyridine-3-sulfonamide

> <PUBCHEM_IUPAC_NAME>
5-(2-amino-[1,2,4]triazolo[1,5-a]pyridin-7-yl)-N-tert-butylpyridine-3-sulfonamide

> <PUBCHEM_IUPAC_SYSTEMATIC_NAME>
5-(2-azanyl-[1,2,4]triazolo[1,5-a]pyridin-7-yl)-N-tert-butyl-pyridine-3-sulfonamide

> <PUBCHEM_IUPAC_TRADITIONAL_NAME>
5-(2-amino-[1,2,4]triazolo[1,5-a]pyridin-7-yl)-N-tert-butyl-pyridine-3-sulfonamide

> <PUBCHEM_IUPAC_INCHI>
InChI=1S/C15H18N6O2S/c1-15(2,3)20-24(22,23)12-6-11(8-17-9-12)10-4-5-21-13(7-10)18-14(16)19-21/h4-9,20H,1-3H3,(H2,16,19)

> <PUBCHEM_IUPAC_INCHIKEY>
IVYWKCAOPCHVMX-UHFFFAOYSA-N

> <PUBCHEM_XLOGP3_AA>
0.9

> <PUBCHEM_EXACT_MASS>
346.12119501

> <PUBCHEM_MOLECULAR_FORMULA>
C15H18N6O2S

> <PUBCHEM_MOLECULAR_WEIGHT>
346.4

> <PUBCHEM_SMILES>
CC(C)(C)NS(=O)(=O)C1=CN=CC(=C1)C2=CC3=NC(=NN3C=C2)N

> <PUBCHEM_OPENEYE_CAN_SMILES>
CC(C)(C)NS(=O)(=O)C1=CN=CC(=C1)C2=CC3=NC(=NN3C=C2)N

> <PUBCHEM_OPENEYE_ISO_SMILES>
CC(C)(C)NS(=O)(=O)C1=CN=CC(=C1)C2=CC3=NC(=NN3C=C2)N

> <PUBCHEM_CACTVS_TPSA>
124

> <PUBCHEM_MONOISOTOPIC_WEIGHT>
346.12119501

> <PUBCHEM_TOTAL_CHARGE>
0

> <PUBCHEM_HEAVY_ATOM_COUNT>
24

> <PUBCHEM_ATOM_DEF_STEREO_COUNT>
0

> <PUBCHEM_ATOM_UDEF_STEREO_COUNT>
0

> <PUBCHEM_BOND_DEF_STEREO_COUNT>
0

> <PUBCHEM_BOND_UDEF_STEREO_COUNT>
0

> <PUBCHEM_ISOTOPIC_ATOM_COUNT>
0

> <PUBCHEM_COMPONENT_COUNT>
1

> <PUBCHEM_CACTVS_TAUTO_COUNT>
-1

> <PUBCHEM_COORDINATE_TYPE>
1
5
255

> <PUBCHEM_BONDANNOTATIONS>
14  15  8
14  18  8
15  16  8
16  19  8
17  20  8
17  21  8
20  22  8
21  23  8
5  22  8
5  23  8
5  8  8
6  18  8
6  19  8
7  22  8
7  24  8
8  24  8

$$$$
