56846693
  -OEChem-03202504332D

 59 62  0     0  0  0  0  0  0999 V2000
   12.4792   -3.7650    0.0000 F   0  0  0  0  0  0  0  0  0  0  0  0
   13.7936   -4.2870    0.0000 F   0  0  0  0  0  0  0  0  0  0  0  0
   14.3156   -2.9727    0.0000 F   0  0  0  0  0  0  0  0  0  0  0  0
   13.1151   -0.6723    0.0000 O   0  0  0  0  0  0  0  0  0  0  0  0
    5.4804    0.2525    0.0000 O   0  0  0  0  0  0  0  0  0  0  0  0
    2.0000    1.2870    0.0000 O   0  0  0  0  0  0  0  0  0  0  0  0
    2.0000    3.2870    0.0000 O   0  0  0  0  0  0  0  0  0  0  0  0
    9.7930   -1.2975    0.0000 O   0  0  0  0  0  0  0  0  0  0  0  0
   12.4546    0.0785    0.0000 N   0  0  0  0  0  0  0  0  0  0  0  0
   10.6763    0.1924    0.0000 N   0  0  0  0  0  0  0  0  0  0  0  0
    8.9443    0.2124    0.0000 N   0  0  0  0  0  0  0  0  0  0  0  0
    5.4920    3.3217    0.0000 N   0  0  0  0  0  0  0  0  0  0  0  0
    6.3981    1.7662    0.0000 N   0  0  0  0  0  0  0  0  0  0  0  0
   13.0013   -2.4507    0.0000 C   0  0  0  0  0  0  0  0  0  0  0  0
   12.6051   -1.5325    0.0000 C   0  0  0  0  0  0  0  0  0  0  0  0
   13.3974   -3.3689    0.0000 C   0  0  0  0  0  0  0  0  0  0  0  0
   13.9195   -2.0545    0.0000 C   0  0  0  0  0  0  0  0  0  0  0  0
   12.0831   -2.8468    0.0000 C   0  0  0  0  0  0  0  0  0  0  0  0
   11.6295   -1.3133    0.0000 C   0  0  0  0  0  0  0  0  0  0  0  0
   11.5364   -0.3176    0.0000 C   0  0  0  0  0  0  0  0  0  0  0  0
    9.8045   -0.2976    0.0000 C   0  0  0  0  0  0  0  0  0  0  0  0
    4.5981    1.7870    0.0000 C   0  0  0  0  0  0  0  0  0  0  0  0
    4.5981    2.7870    0.0000 C   0  0  0  0  0  0  0  0  0  0  0  0
    8.0726   -0.2776    0.0000 C   0  0  0  0  0  0  0  0  0  0  0  0
    5.4920    1.2524    0.0000 C   0  0  0  0  0  0  0  0  0  0  0  0
    3.7320    1.2870    0.0000 C   0  0  0  0  0  0  0  0  0  0  0  0
    2.8660    1.7870    0.0000 C   0  0  0  0  0  0  0  0  0  0  0  0
    2.8660    2.7870    0.0000 C   0  0  0  0  0  0  0  0  0  0  0  0
    3.7320    3.2870    0.0000 C   0  0  0  0  0  0  0  0  0  0  0  0
    6.3406   -0.2575    0.0000 C   0  0  0  0  0  0  0  0  0  0  0  0
    7.2124    0.2324    0.0000 C   0  0  0  0  0  0  0  0  0  0  0  0
    8.0610   -1.2775    0.0000 C   0  0  0  0  0  0  0  0  0  0  0  0
    6.3291   -1.2575    0.0000 C   0  0  0  0  0  0  0  0  0  0  0  0
    7.1893   -1.7674    0.0000 C   0  0  0  0  0  0  0  0  0  0  0  0
    6.3981    2.8079    0.0000 C   0  0  0  0  0  0  0  0  0  0  0  0
    2.0000    0.2870    0.0000 C   0  0  0  0  0  0  0  0  0  0  0  0
    2.0000    4.2870    0.0000 C   0  0  0  0  0  0  0  0  0  0  0  0
   14.1651   -2.6238    0.0000 H   0  0  0  0  0  0  0  0  0  0  0  0
   14.4888   -1.8089    0.0000 H   0  0  0  0  0  0  0  0  0  0  0  0
   13.6739   -1.4852    0.0000 H   0  0  0  0  0  0  0  0  0  0  0  0
   11.8375   -2.2775    0.0000 H   0  0  0  0  0  0  0  0  0  0  0  0
   11.5138   -3.0924    0.0000 H   0  0  0  0  0  0  0  0  0  0  0  0
   12.3287   -3.4161    0.0000 H   0  0  0  0  0  0  0  0  0  0  0  0
   11.1640   -1.7228    0.0000 H   0  0  0  0  0  0  0  0  0  0  0  0
   10.6834    0.8123    0.0000 H   0  0  0  0  0  0  0  0  0  0  0  0
    8.9515    0.8324    0.0000 H   0  0  0  0  0  0  0  0  0  0  0  0
    3.7320    0.6670    0.0000 H   0  0  0  0  0  0  0  0  0  0  0  0
    3.7320    3.9070    0.0000 H   0  0  0  0  0  0  0  0  0  0  0  0
    7.2196    0.8524    0.0000 H   0  0  0  0  0  0  0  0  0  0  0  0
    8.5943   -1.5937    0.0000 H   0  0  0  0  0  0  0  0  0  0  0  0
    5.7886   -1.5612    0.0000 H   0  0  0  0  0  0  0  0  0  0  0  0
    7.1821   -2.3874    0.0000 H   0  0  0  0  0  0  0  0  0  0  0  0
    6.9338    3.1199    0.0000 H   0  0  0  0  0  0  0  0  0  0  0  0
    1.3800    0.2870    0.0000 H   0  0  0  0  0  0  0  0  0  0  0  0
    2.0000   -0.3330    0.0000 H   0  0  0  0  0  0  0  0  0  0  0  0
    2.6200    0.2870    0.0000 H   0  0  0  0  0  0  0  0  0  0  0  0
    2.6200    4.2870    0.0000 H   0  0  0  0  0  0  0  0  0  0  0  0
    2.0000    4.9070    0.0000 H   0  0  0  0  0  0  0  0  0  0  0  0
    1.3800    4.2870    0.0000 H   0  0  0  0  0  0  0  0  0  0  0  0
  1 16  1  0  0  0  0
  2 16  1  0  0  0  0
  3 16  1  0  0  0  0
  4  9  1  0  0  0  0
  4 15  1  0  0  0  0
  5 25  1  0  0  0  0
  5 30  1  0  0  0  0
  6 27  1  0  0  0  0
  6 36  1  0  0  0  0
  7 28  1  0  0  0  0
  7 37  1  0  0  0  0
  8 21  2  0  0  0  0
  9 20  2  0  0  0  0
 10 20  1  0  0  0  0
 10 21  1  0  0  0  0
 10 45  1  0  0  0  0
 11 21  1  0  0  0  0
 11 24  1  0  0  0  0
 11 46  1  0  0  0  0
 12 23  1  0  0  0  0
 12 35  2  0  0  0  0
 13 25  2  0  0  0  0
 13 35  1  0  0  0  0
 14 15  1  0  0  0  0
 14 16  1  0  0  0  0
 14 17  1  0  0  0  0
 14 18  1  0  0  0  0
 15 19  2  0  0  0  0
 17 38  1  0  0  0  0
 17 39  1  0  0  0  0
 17 40  1  0  0  0  0
 18 41  1  0  0  0  0
 18 42  1  0  0  0  0
 18 43  1  0  0  0  0
 19 20  1  0  0  0  0
 19 44  1  0  0  0  0
 22 23  1  0  0  0  0
 22 25  1  0  0  0  0
 22 26  2  0  0  0  0
 23 29  2  0  0  0  0
 24 31  2  0  0  0  0
 24 32  1  0  0  0  0
 26 27  1  0  0  0  0
 26 47  1  0  0  0  0
 27 28  2  0  0  0  0
 28 29  1  0  0  0  0
 29 48  1  0  0  0  0
 30 31  1  0  0  0  0
 30 33  2  0  0  0  0
 31 49  1  0  0  0  0
 32 34  2  0  0  0  0
 32 50  1  0  0  0  0
 33 34  1  0  0  0  0
 33 51  1  0  0  0  0
 34 52  1  0  0  0  0
 35 53  1  0  0  0  0
 36 54  1  0  0  0  0
 36 55  1  0  0  0  0
 36 56  1  0  0  0  0
 37 57  1  0  0  0  0
 37 58  1  0  0  0  0
 37 59  1  0  0  0  0
M  END
> <PUBCHEM_COMPOUND_CID>
56846693

> <PUBCHEM_COMPOUND_CANONICALIZED>
1

> <PUBCHEM_CACTVS_COMPLEXITY>
776

> <PUBCHEM_CACTVS_HBOND_ACCEPTOR>
11

> <PUBCHEM_CACTVS_HBOND_DONOR>
2

> <PUBCHEM_CACTVS_ROTATABLE_BOND>
7

> <PUBCHEM_CACTVS_SUBSKEYS>
AAADceB7uYAAAAAAAAAAAAAAAAAAAWAAAAA8YIAAAAAAAACx/AAAHwAUAAAADgyBnhY39vbYFACpA6ZzdgCCiCk1IqAp2CE+7NqNLqrE+duOPKru1RtK6Gfw8D8PIEABAgACQABAgAIEAASAAAAAAAAAAA==

> <PUBCHEM_IUPAC_OPENEYE_NAME>
1-[3-(6,7-dimethoxyquinazolin-4-yl)oxyphenyl]-3-[5-(2,2,2-trifluoro-1,1-dimethyl-ethyl)isoxazol-3-yl]urea

> <PUBCHEM_IUPAC_CAS_NAME>
1-[3-[(6,7-dimethoxy-4-quinazolinyl)oxy]phenyl]-3-[5-(1,1,1-trifluoro-2-methylpropan-2-yl)-3-isoxazolyl]urea

> <PUBCHEM_IUPAC_NAME_MARKUP>
1-[3-(6,7-dimethoxyquinazolin-4-yl)oxyphenyl]-3-[5-(1,1,1-trifluoro-2-methylpropan-2-yl)-1,2-oxazol-3-yl]urea

> <PUBCHEM_IUPAC_NAME>
1-[3-(6,7-dimethoxyquinazolin-4-yl)oxyphenyl]-3-[5-(1,1,1-trifluoro-2-methylpropan-2-yl)-1,2-oxazol-3-yl]urea

> <PUBCHEM_IUPAC_SYSTEMATIC_NAME>
1-[3-(6,7-dimethoxyquinazolin-4-yl)oxyphenyl]-3-[5-[1,1,1-tris(fluoranyl)-2-methyl-propan-2-yl]-1,2-oxazol-3-yl]urea

> <PUBCHEM_IUPAC_TRADITIONAL_NAME>
1-[3-(6,7-dimethoxyquinazolin-4-yl)oxyphenyl]-3-[5-(2,2,2-trifluoro-1,1-dimethyl-ethyl)isoxazol-3-yl]urea

> <PUBCHEM_IUPAC_INCHI>
InChI=1S/C24H22F3N5O5/c1-23(2,24(25,26)27)19-11-20(32-37-19)31-22(33)30-13-6-5-7-14(8-13)36-21-15-9-17(34-3)18(35-4)10-16(15)28-12-29-21/h5-12H,1-4H3,(H2,30,31,32,33)

> <PUBCHEM_IUPAC_INCHIKEY>
DKNUPRMJNUQNHR-UHFFFAOYSA-N

> <PUBCHEM_XLOGP3_AA>
5

> <PUBCHEM_EXACT_MASS>
517.15730331

> <PUBCHEM_MOLECULAR_FORMULA>
C24H22F3N5O5

> <PUBCHEM_MOLECULAR_WEIGHT>
517.5

> <PUBCHEM_SMILES>
CC(C)(C1=CC(=NO1)NC(=O)NC2=CC(=CC=C2)OC3=NC=NC4=CC(=C(C=C43)OC)OC)C(F)(F)F

> <PUBCHEM_OPENEYE_CAN_SMILES>
CC(C)(C1=CC(=NO1)NC(=O)NC2=CC(=CC=C2)OC3=NC=NC4=CC(=C(C=C43)OC)OC)C(F)(F)F

> <PUBCHEM_OPENEYE_ISO_SMILES>
CC(C)(C1=CC(=NO1)NC(=O)NC2=CC(=CC=C2)OC3=NC=NC4=CC(=C(C=C43)OC)OC)C(F)(F)F

> <PUBCHEM_CACTVS_TPSA>
121

> <PUBCHEM_MONOISOTOPIC_WEIGHT>
517.15730331

> <PUBCHEM_TOTAL_CHARGE>
0

> <PUBCHEM_HEAVY_ATOM_COUNT>
37

> <PUBCHEM_ATOM_DEF_STEREO_COUNT>
0

> <PUBCHEM_ATOM_UDEF_STEREO_COUNT>
0

> <PUBCHEM_BOND_DEF_STEREO_COUNT>
0

> <PUBCHEM_BOND_UDEF_STEREO_COUNT>
0

> <PUBCHEM_ISOTOPIC_ATOM_COUNT>
0

> <PUBCHEM_COMPONENT_COUNT>
1

> <PUBCHEM_CACTVS_TAUTO_COUNT>
-1

> <PUBCHEM_COORDINATE_TYPE>
1
5
255

> <PUBCHEM_BONDANNOTATIONS>
12  23  8
12  35  8
13  25  8
13  35  8
15  19  8
19  20  8
22  23  8
22  25  8
22  26  8
23  29  8
24  31  8
24  32  8
26  27  8
27  28  8
28  29  8
30  31  8
30  33  8
32  34  8
33  34  8
4  15  8
4  9  8
9  20  8

$$$$
