49830368
  -OEChem-03202500492D

 51 55  0     0  0  0  0  0  0999 V2000
   12.3293   -0.0641    0.0000 S   0  0  0  0  0  0  0  0  0  0  0  0
    6.3243    0.6305    0.0000 O   0  0  0  0  0  0  0  0  0  0  0  0
    7.1961    2.1271    0.0000 N   0  0  0  0  0  0  0  0  0  0  0  0
   12.3607   -1.9109    0.0000 N   0  0  0  0  0  0  0  0  0  0  0  0
   10.7294   -2.6464    0.0000 N   0  0  0  0  0  0  0  0  0  0  0  0
    9.3213   -1.5825    0.0000 N   0  0  0  0  0  0  0  0  0  0  0  0
    5.4641    2.1338    0.0000 N   0  0  0  0  0  0  0  0  0  0  0  0
   10.7262    2.1030    0.0000 C   0  0  0  0  0  0  0  0  0  0  0  0
   10.7262    0.1030    0.0000 C   0  0  0  0  0  0  0  0  0  0  0  0
   11.5923    1.6030    0.0000 C   0  0  0  0  0  0  0  0  0  0  0  0
    9.8602    1.6030    0.0000 C   0  0  0  0  0  0  0  0  0  0  0  0
    9.8602    0.6030    0.0000 C   0  0  0  0  0  0  0  0  0  0  0  0
   11.5923    0.6030    0.0000 C   0  0  0  0  0  0  0  0  0  0  0  0
   10.9354   -0.8689    0.0000 C   0  0  0  0  0  0  0  0  0  0  0  0
    8.9663    2.1376    0.0000 C   0  0  0  0  0  0  0  0  0  0  0  0
    8.9663    0.0683    0.0000 C   0  0  0  0  0  0  0  0  0  0  0  0
   11.9242   -0.9719    0.0000 C   0  0  0  0  0  0  0  0  0  0  0  0
    8.0602    1.6238    0.0000 C   0  0  0  0  0  0  0  0  0  0  0  0
    8.0602    0.5821    0.0000 C   0  0  0  0  0  0  0  0  0  0  0  0
   10.3147   -1.6976    0.0000 C   0  0  0  0  0  0  0  0  0  0  0  0
   11.7592   -2.7538    0.0000 C   0  0  0  0  0  0  0  0  0  0  0  0
    6.3282    1.6304    0.0000 C   0  0  0  0  0  0  0  0  0  0  0  0
    4.5961    1.6371    0.0000 C   0  0  0  0  0  0  0  0  0  0  0  0
    4.5923    0.6371    0.0000 C   0  0  0  0  0  0  0  0  0  0  0  0
    3.7320    2.1404    0.0000 C   0  0  0  0  0  0  0  0  0  0  0  0
    3.7243    0.1405    0.0000 C   0  0  0  0  0  0  0  0  0  0  0  0
    2.8641    1.6438    0.0000 C   0  0  0  0  0  0  0  0  0  0  0  0
    2.8602    0.6438    0.0000 C   0  0  0  0  0  0  0  0  0  0  0  0
    3.7205   -0.8595    0.0000 C   0  0  0  0  0  0  0  0  0  0  0  0
    2.0000    2.1471    0.0000 C   0  0  0  0  0  0  0  0  0  0  0  0
   11.1248    2.5779    0.0000 H   0  0  0  0  0  0  0  0  0  0  0  0
   10.3277    2.5779    0.0000 H   0  0  0  0  0  0  0  0  0  0  0  0
   12.2028    1.4953    0.0000 H   0  0  0  0  0  0  0  0  0  0  0  0
   11.8043    2.1856    0.0000 H   0  0  0  0  0  0  0  0  0  0  0  0
    8.9734    2.7576    0.0000 H   0  0  0  0  0  0  0  0  0  0  0  0
    8.9734   -0.5517    0.0000 H   0  0  0  0  0  0  0  0  0  0  0  0
    7.5245    0.2701    0.0000 H   0  0  0  0  0  0  0  0  0  0  0  0
    7.1985    2.7471    0.0000 H   0  0  0  0  0  0  0  0  0  0  0  0
   12.0141   -3.3190    0.0000 H   0  0  0  0  0  0  0  0  0  0  0  0
    8.9516   -2.0801    0.0000 H   0  0  0  0  0  0  0  0  0  0  0  0
    9.0752   -1.0134    0.0000 H   0  0  0  0  0  0  0  0  0  0  0  0
    5.4665    2.7538    0.0000 H   0  0  0  0  0  0  0  0  0  0  0  0
    5.1280    0.3251    0.0000 H   0  0  0  0  0  0  0  0  0  0  0  0
    3.7344    2.7604    0.0000 H   0  0  0  0  0  0  0  0  0  0  0  0
    2.3221    0.3359    0.0000 H   0  0  0  0  0  0  0  0  0  0  0  0
    3.1005   -0.8571    0.0000 H   0  0  0  0  0  0  0  0  0  0  0  0
    3.7181   -1.4795    0.0000 H   0  0  0  0  0  0  0  0  0  0  0  0
    4.3405   -0.8619    0.0000 H   0  0  0  0  0  0  0  0  0  0  0  0
    2.3121    2.6829    0.0000 H   0  0  0  0  0  0  0  0  0  0  0  0
    1.4643    2.4592    0.0000 H   0  0  0  0  0  0  0  0  0  0  0  0
    1.6879    1.6114    0.0000 H   0  0  0  0  0  0  0  0  0  0  0  0
  1 13  1  0  0  0  0
  1 17  1  0  0  0  0
  2 22  2  0  0  0  0
  3 18  1  0  0  0  0
  3 22  1  0  0  0  0
  3 38  1  0  0  0  0
  4 17  2  0  0  0  0
  4 21  1  0  0  0  0
  5 20  1  0  0  0  0
  5 21  2  0  0  0  0
  6 20  1  0  0  0  0
  6 40  1  0  0  0  0
  6 41  1  0  0  0  0
  7 22  1  0  0  0  0
  7 23  1  0  0  0  0
  7 42  1  0  0  0  0
  8 10  1  0  0  0  0
  8 11  1  0  0  0  0
  8 31  1  0  0  0  0
  8 32  1  0  0  0  0
  9 12  1  0  0  0  0
  9 13  2  0  0  0  0
  9 14  1  0  0  0  0
 10 13  1  0  0  0  0
 10 33  1  0  0  0  0
 10 34  1  0  0  0  0
 11 12  2  0  0  0  0
 11 15  1  0  0  0  0
 12 16  1  0  0  0  0
 14 17  1  0  0  0  0
 14 20  2  0  0  0  0
 15 18  2  0  0  0  0
 15 35  1  0  0  0  0
 16 19  2  0  0  0  0
 16 36  1  0  0  0  0
 18 19  1  0  0  0  0
 19 37  1  0  0  0  0
 21 39  1  0  0  0  0
 23 24  2  0  0  0  0
 23 25  1  0  0  0  0
 24 26  1  0  0  0  0
 24 43  1  0  0  0  0
 25 27  2  0  0  0  0
 25 44  1  0  0  0  0
 26 28  2  0  0  0  0
 26 29  1  0  0  0  0
 27 28  1  0  0  0  0
 27 30  1  0  0  0  0
 28 45  1  0  0  0  0
 29 46  1  0  0  0  0
 29 47  1  0  0  0  0
 29 48  1  0  0  0  0
 30 49  1  0  0  0  0
 30 50  1  0  0  0  0
 30 51  1  0  0  0  0
M  END
> <PUBCHEM_COMPOUND_CID>
49830368

> <PUBCHEM_COMPOUND_CANONICALIZED>
1

> <PUBCHEM_CACTVS_COMPLEXITY>
625

> <PUBCHEM_CACTVS_HBOND_ACCEPTOR>
5

> <PUBCHEM_CACTVS_HBOND_DONOR>
3

> <PUBCHEM_CACTVS_ROTATABLE_BOND>
2

> <PUBCHEM_CACTVS_SUBSKEYS>
AAADceB7oABAAAAAAAAAAAAAAAAAASAAAAA8YMEAAAAAAFjB/AAAHgQQAAAADAiBWgQ38dbIEAisAiZjdACD0KlxCrgJ2DAoZJiIKCLg2dGEJAxolAJoyCcQgMAOiAACQAAQAAAwAAWAACgAAAAAAAAAAA==

> <PUBCHEM_IUPAC_OPENEYE_NAME>
1-(16-amino-11-thia-13,15-diazatetracyclo[8.7.0.02,7.012,17]heptadeca-1(10),2(7),3,5,12,14,16-heptaen-5-yl)-3-(3,5-dimethylphenyl)urea

> <PUBCHEM_IUPAC_CAS_NAME>
1-(16-amino-11-thia-13,15-diazatetracyclo[8.7.0.02,7.012,17]heptadeca-1(10),2(7),3,5,12,14,16-heptaen-5-yl)-3-(3,5-dimethylphenyl)urea

> <PUBCHEM_IUPAC_NAME_MARKUP>
1-(16-amino-11-thia-13,15-diazatetracyclo[8.7.0.0<SUP>2,7</SUP>.0<SUP>12,17</SUP>]heptadeca-1(10),2(7),3,5,12,14,16-heptaen-5-yl)-3-(3,5-dimethylphenyl)urea

> <PUBCHEM_IUPAC_NAME>
1-(16-amino-11-thia-13,15-diazatetracyclo[8.7.0.02,7.012,17]heptadeca-1(10),2(7),3,5,12,14,16-heptaen-5-yl)-3-(3,5-dimethylphenyl)urea

> <PUBCHEM_IUPAC_SYSTEMATIC_NAME>
1-(16-azanyl-11-thia-13,15-diazatetracyclo[8.7.0.02,7.012,17]heptadeca-1(10),2(7),3,5,12,14,16-heptaen-5-yl)-3-(3,5-dimethylphenyl)urea

> <PUBCHEM_IUPAC_TRADITIONAL_NAME>
1-(16-amino-11-thia-13,15-diazatetracyclo[8.7.0.02,7.012,17]heptadeca-1(10),2(7),3,5,12,14,16-heptaen-5-yl)-3-(3,5-dimethylphenyl)urea

> <PUBCHEM_IUPAC_INCHI>
InChI=1S/C23H21N5OS/c1-12-7-13(2)9-16(8-12)28-23(29)27-15-4-5-17-14(10-15)3-6-18-19(17)20-21(24)25-11-26-22(20)30-18/h4-5,7-11H,3,6H2,1-2H3,(H2,24,25,26)(H2,27,28,29)

> <PUBCHEM_IUPAC_INCHIKEY>
PYXQMJSGJIJHJT-UHFFFAOYSA-N

> <PUBCHEM_XLOGP3_AA>
4.5

> <PUBCHEM_EXACT_MASS>
415.14668148

> <PUBCHEM_MOLECULAR_FORMULA>
C23H21N5OS

> <PUBCHEM_MOLECULAR_WEIGHT>
415.5

> <PUBCHEM_SMILES>
CC1=CC(=CC(=C1)NC(=O)NC2=CC3=C(C=C2)C4=C(CC3)SC5=NC=NC(=C45)N)C

> <PUBCHEM_OPENEYE_CAN_SMILES>
CC1=CC(=CC(=C1)NC(=O)NC2=CC3=C(C=C2)C4=C(CC3)SC5=NC=NC(=C45)N)C

> <PUBCHEM_OPENEYE_ISO_SMILES>
CC1=CC(=CC(=C1)NC(=O)NC2=CC3=C(C=C2)C4=C(CC3)SC5=NC=NC(=C45)N)C

> <PUBCHEM_CACTVS_TPSA>
121

> <PUBCHEM_MONOISOTOPIC_WEIGHT>
415.14668148

> <PUBCHEM_TOTAL_CHARGE>
0

> <PUBCHEM_HEAVY_ATOM_COUNT>
30

> <PUBCHEM_ATOM_DEF_STEREO_COUNT>
0

> <PUBCHEM_ATOM_UDEF_STEREO_COUNT>
0

> <PUBCHEM_BOND_DEF_STEREO_COUNT>
0

> <PUBCHEM_BOND_UDEF_STEREO_COUNT>
0

> <PUBCHEM_ISOTOPIC_ATOM_COUNT>
0

> <PUBCHEM_COMPONENT_COUNT>
1

> <PUBCHEM_CACTVS_TAUTO_COUNT>
-1

> <PUBCHEM_COORDINATE_TYPE>
1
5
255

> <PUBCHEM_BONDANNOTATIONS>
1  13  8
1  17  8
11  12  8
11  15  8
12  16  8
14  17  8
14  20  8
15  18  8
16  19  8
18  19  8
23  24  8
23  25  8
24  26  8
25  27  8
26  28  8
27  28  8
4  17  8
4  21  8
5  20  8
5  21  8
9  13  8
9  14  8

$$$$
