44570600
  -OEChem-03202506352D

 50 52  0     0  0  0  0  0  0999 V2000
   11.5263    5.7500    0.0000 I   0  0  0  0  0  0  0  0  0  0  0  0
    2.0000   -5.7500    0.0000 Cl  0  0  0  0  0  0  0  0  0  0  0  0
    5.4641   -3.7500    0.0000 S   0  0  0  0  0  0  0  0  0  0  0  0
    9.7942    2.7500    0.0000 F   0  0  0  0  0  0  0  0  0  0  0  0
    9.7942    0.7500    0.0000 F   0  0  0  0  0  0  0  0  0  0  0  0
    8.0622    5.7500    0.0000 F   0  0  0  0  0  0  0  0  0  0  0  0
    5.9641   -4.6160    0.0000 O   0  0  0  0  0  0  0  0  0  0  0  0
    4.9641   -2.8840    0.0000 O   0  0  0  0  0  0  0  0  0  0  0  0
    5.4641   -1.7500    0.0000 O   0  0  0  0  0  0  0  0  0  0  0  0
    5.4641    2.2500    0.0000 O   0  0  0  0  0  0  0  0  0  0  0  0
    6.3301    3.7500    0.0000 O   0  0  0  0  0  0  0  0  0  0  0  0
    8.0622    3.7500    0.0000 N   0  0  0  0  0  0  0  0  0  0  0  0
    7.1962   -1.7500    0.0000 N   0  0  0  0  0  0  0  0  0  0  0  0
    7.1962   -0.7500    0.0000 N   0  0  0  0  0  0  0  0  0  0  0  0
    6.3301   -3.2500    0.0000 C   0  0  0  0  0  0  0  0  0  0  0  0
    4.5981   -4.2500    0.0000 C   0  0  0  0  0  0  0  0  0  0  0  0
    8.0622    2.7500    0.0000 C   0  0  0  0  0  0  0  0  0  0  0  0
    7.1962    2.2500    0.0000 C   0  0  0  0  0  0  0  0  0  0  0  0
    8.0622    0.7500    0.0000 C   0  0  0  0  0  0  0  0  0  0  0  0
    3.7320   -3.7500    0.0000 C   0  0  0  0  0  0  0  0  0  0  0  0
    4.5981   -5.2500    0.0000 C   0  0  0  0  0  0  0  0  0  0  0  0
    6.3301   -2.2500    0.0000 C   0  0  0  0  0  0  0  0  0  0  0  0
    7.1962    1.2500    0.0000 C   0  0  0  0  0  0  0  0  0  0  0  0
    8.9282    2.2500    0.0000 C   0  0  0  0  0  0  0  0  0  0  0  0
    8.9282    1.2500    0.0000 C   0  0  0  0  0  0  0  0  0  0  0  0
    8.9282    4.2500    0.0000 C   0  0  0  0  0  0  0  0  0  0  0  0
    2.8660   -4.2500    0.0000 C   0  0  0  0  0  0  0  0  0  0  0  0
    3.7320   -5.7500    0.0000 C   0  0  0  0  0  0  0  0  0  0  0  0
    8.0622   -0.2500    0.0000 C   0  0  0  0  0  0  0  0  0  0  0  0
    2.8660   -5.2500    0.0000 C   0  0  0  0  0  0  0  0  0  0  0  0
    8.9282    5.2500    0.0000 C   0  0  0  0  0  0  0  0  0  0  0  0
    9.7942    3.7500    0.0000 C   0  0  0  0  0  0  0  0  0  0  0  0
    6.3301    2.7500    0.0000 C   0  0  0  0  0  0  0  0  0  0  0  0
    9.7942    5.7500    0.0000 C   0  0  0  0  0  0  0  0  0  0  0  0
   10.6603    4.2500    0.0000 C   0  0  0  0  0  0  0  0  0  0  0  0
   10.6603    5.2500    0.0000 C   0  0  0  0  0  0  0  0  0  0  0  0
    6.5422   -3.8326    0.0000 H   0  0  0  0  0  0  0  0  0  0  0  0
    6.9407   -3.1423    0.0000 H   0  0  0  0  0  0  0  0  0  0  0  0
    3.7320   -3.1300    0.0000 H   0  0  0  0  0  0  0  0  0  0  0  0
    5.1350   -5.5600    0.0000 H   0  0  0  0  0  0  0  0  0  0  0  0
    6.6592    0.9400    0.0000 H   0  0  0  0  0  0  0  0  0  0  0  0
    7.5252    4.0600    0.0000 H   0  0  0  0  0  0  0  0  0  0  0  0
    2.3291   -3.9400    0.0000 H   0  0  0  0  0  0  0  0  0  0  0  0
    3.7320   -6.3700    0.0000 H   0  0  0  0  0  0  0  0  0  0  0  0
    8.5991   -0.5600    0.0000 H   0  0  0  0  0  0  0  0  0  0  0  0
    7.7331   -2.0600    0.0000 H   0  0  0  0  0  0  0  0  0  0  0  0
    9.7942    3.1300    0.0000 H   0  0  0  0  0  0  0  0  0  0  0  0
    9.7942    6.3700    0.0000 H   0  0  0  0  0  0  0  0  0  0  0  0
   11.1972    3.9400    0.0000 H   0  0  0  0  0  0  0  0  0  0  0  0
    4.9272    2.5600    0.0000 H   0  0  0  0  0  0  0  0  0  0  0  0
  1 36  1  0  0  0  0
  2 30  1  0  0  0  0
  3  7  2  0  0  0  0
  3  8  2  0  0  0  0
  3 15  1  0  0  0  0
  3 16  1  0  0  0  0
  4 24  1  0  0  0  0
  5 25  1  0  0  0  0
  6 31  1  0  0  0  0
  9 22  2  0  0  0  0
 10 33  1  0  0  0  0
 10 50  1  0  0  0  0
 11 33  2  0  0  0  0
 12 17  1  0  0  0  0
 12 26  1  0  0  0  0
 12 42  1  0  0  0  0
 13 14  1  0  0  0  0
 13 22  1  0  0  0  0
 13 46  1  0  0  0  0
 14 29  2  0  0  0  0
 15 22  1  0  0  0  0
 15 37  1  0  0  0  0
 15 38  1  0  0  0  0
 16 20  2  0  0  0  0
 16 21  1  0  0  0  0
 17 18  2  0  0  0  0
 17 24  1  0  0  0  0
 18 23  1  0  0  0  0
 18 33  1  0  0  0  0
 19 23  2  0  0  0  0
 19 25  1  0  0  0  0
 19 29  1  0  0  0  0
 20 27  1  0  0  0  0
 20 39  1  0  0  0  0
 21 28  2  0  0  0  0
 21 40  1  0  0  0  0
 23 41  1  0  0  0  0
 24 25  2  0  0  0  0
 26 31  2  0  0  0  0
 26 32  1  0  0  0  0
 27 30  2  0  0  0  0
 27 43  1  0  0  0  0
 28 30  1  0  0  0  0
 28 44  1  0  0  0  0
 29 45  1  0  0  0  0
 31 34  1  0  0  0  0
 32 35  2  0  0  0  0
 32 47  1  0  0  0  0
 34 36  2  0  0  0  0
 34 48  1  0  0  0  0
 35 36  1  0  0  0  0
 35 49  1  0  0  0  0
M  END
> <PUBCHEM_COMPOUND_CID>
44570600

> <PUBCHEM_COMPOUND_CANONICALIZED>
1

> <PUBCHEM_CACTVS_COMPLEXITY>
919

> <PUBCHEM_CACTVS_HBOND_ACCEPTOR>
10

> <PUBCHEM_CACTVS_HBOND_DONOR>
3

> <PUBCHEM_CACTVS_ROTATABLE_BOND>
8

> <PUBCHEM_CACTVS_SUBSKEYS>
AAADccB7OYBEAgAAAAAAAAAAAAAAAAAAAAAwYMAAAAAAAAABUAAAHwY4CAAADArH2CywyYLiAgqoAjXzWHDSAAAlDxAaiBkgbtgIJvrhl5GEcYhm2AHo2ceYyGCOCAICAAACAAAQBAQAAAQAAAAAAAAAAA==

> <PUBCHEM_IUPAC_OPENEYE_NAME>
5-[(E)-[[2-(4-chlorophenyl)sulfonylacetyl]hydrazono]methyl]-3,4-difluoro-2-(2-fluoro-4-iodo-anilino)benzoic acid

> <PUBCHEM_IUPAC_CAS_NAME>
5-[(E)-[[2-(4-chlorophenyl)sulfonyl-1-oxoethyl]hydrazinylidene]methyl]-3,4-difluoro-2-(2-fluoro-4-iodoanilino)benzoic acid

> <PUBCHEM_IUPAC_NAME_MARKUP>
5-[(<I>E</I>)-[[2-(4-chlorophenyl)sulfonylacetyl]hydrazinylidene]methyl]-3,4-difluoro-2-(2-fluoro-4-iodoanilino)benzoic acid

> <PUBCHEM_IUPAC_NAME>
5-[(E)-[[2-(4-chlorophenyl)sulfonylacetyl]hydrazinylidene]methyl]-3,4-difluoro-2-(2-fluoro-4-iodoanilino)benzoic acid

> <PUBCHEM_IUPAC_SYSTEMATIC_NAME>
5-[(E)-[2-(4-chlorophenyl)sulfonylethanoylhydrazinylidene]methyl]-3,4-bis(fluoranyl)-2-[(2-fluoranyl-4-iodanyl-phenyl)amino]benzoic acid

> <PUBCHEM_IUPAC_TRADITIONAL_NAME>
5-[(E)-[[2-(4-chlorophenyl)sulfonylacetyl]hydrazono]methyl]-3,4-difluoro-2-(2-fluoro-4-iodo-anilino)benzoic acid

> <PUBCHEM_IUPAC_INCHI>
InChI=1S/C22H14ClF3IN3O5S/c23-12-1-4-14(5-2-12)36(34,35)10-18(31)30-28-9-11-7-15(22(32)33)21(20(26)19(11)25)29-17-6-3-13(27)8-16(17)24/h1-9,29H,10H2,(H,30,31)(H,32,33)/b28-9+

> <PUBCHEM_IUPAC_INCHIKEY>
LIPBUDUJYLHQGE-HIUVJMHLSA-N

> <PUBCHEM_XLOGP3_AA>
5.3

> <PUBCHEM_EXACT_MASS>
650.93395

> <PUBCHEM_MOLECULAR_FORMULA>
C22H14ClF3IN3O5S

> <PUBCHEM_MOLECULAR_WEIGHT>
651.8

> <PUBCHEM_SMILES>
C1=CC(=CC=C1S(=O)(=O)CC(=O)N/N=C/C2=CC(=C(C(=C2F)F)NC3=C(C=C(C=C3)I)F)C(=O)O)Cl

> <PUBCHEM_OPENEYE_CAN_SMILES>
C1=CC(=CC=C1S(=O)(=O)CC(=O)NN=CC2=CC(=C(C(=C2F)F)NC3=C(C=C(C=C3)I)F)C(=O)O)Cl

> <PUBCHEM_OPENEYE_ISO_SMILES>
C1=CC(=CC=C1S(=O)(=O)CC(=O)N/N=C/C2=CC(=C(C(=C2F)F)NC3=C(C=C(C=C3)I)F)C(=O)O)Cl

> <PUBCHEM_CACTVS_TPSA>
133

> <PUBCHEM_MONOISOTOPIC_WEIGHT>
650.93395

> <PUBCHEM_TOTAL_CHARGE>
0

> <PUBCHEM_HEAVY_ATOM_COUNT>
36

> <PUBCHEM_ATOM_DEF_STEREO_COUNT>
0

> <PUBCHEM_ATOM_UDEF_STEREO_COUNT>
0

> <PUBCHEM_BOND_DEF_STEREO_COUNT>
1

> <PUBCHEM_BOND_UDEF_STEREO_COUNT>
0

> <PUBCHEM_ISOTOPIC_ATOM_COUNT>
0

> <PUBCHEM_COMPONENT_COUNT>
1

> <PUBCHEM_CACTVS_TAUTO_COUNT>
-1

> <PUBCHEM_COORDINATE_TYPE>
1
5
255

> <PUBCHEM_BONDANNOTATIONS>
16  20  8
16  21  8
17  18  8
17  24  8
18  23  8
19  23  8
19  25  8
20  27  8
21  28  8
24  25  8
26  31  8
26  32  8
27  30  8
28  30  8
31  34  8
32  35  8
34  36  8
35  36  8

$$$$
