49830458
  -OEChem-03202503232D

 48 52  0     0  0  0  0  0  0999 V2000
   13.5378    0.3954    0.0000 F   0  0  0  0  0  0  0  0  0  0  0  0
   10.8664    3.3726    0.0000 F   0  0  0  0  0  0  0  0  0  0  0  0
   12.2486   -0.7614    0.0000 O   0  0  0  0  0  0  0  0  0  0  0  0
    5.1646   -0.6421    0.0000 N   0  0  0  0  0  0  0  0  0  0  0  0
   10.2916   -2.7833    0.0000 N   0  0  0  0  0  0  0  0  0  0  0  0
   10.8752   -1.9785    0.0000 N   0  0  0  0  0  0  0  0  0  0  0  0
   10.6022   -0.2233    0.0000 N   0  0  0  0  0  0  0  0  0  0  0  0
    6.6428    0.0160    0.0000 N   0  0  0  0  0  0  0  0  0  0  0  0
    5.6646    0.2239    0.0000 N   0  0  0  0  0  0  0  0  0  0  0  0
    9.3454   -1.4785    0.0000 C   0  0  0  0  0  0  0  0  0  0  0  0
    9.3454   -2.4785    0.0000 C   0  0  0  0  0  0  0  0  0  0  0  0
    7.6133   -1.4785    0.0000 C   0  0  0  0  0  0  0  0  0  0  0  0
    8.4793   -0.9785    0.0000 C   0  0  0  0  0  0  0  0  0  0  0  0
   10.2916   -1.1738    0.0000 C   0  0  0  0  0  0  0  0  0  0  0  0
    6.7473   -0.9785    0.0000 C   0  0  0  0  0  0  0  0  0  0  0  0
    8.4793   -2.9785    0.0000 C   0  0  0  0  0  0  0  0  0  0  0  0
    7.6133   -2.4785    0.0000 C   0  0  0  0  0  0  0  0  0  0  0  0
    4.1701   -0.7466    0.0000 C   0  0  0  0  0  0  0  0  0  0  0  0
    5.8338   -1.3853    0.0000 C   0  0  0  0  0  0  0  0  0  0  0  0
    3.5823    0.0624    0.0000 C   0  0  0  0  0  0  0  0  0  0  0  0
   11.5808   -0.0171    0.0000 C   0  0  0  0  0  0  0  0  0  0  0  0
    3.9890    0.9759    0.0000 C   0  0  0  0  0  0  0  0  0  0  0  0
    2.5878   -0.0422    0.0000 C   0  0  0  0  0  0  0  0  0  0  0  0
   11.8914    0.9335    0.0000 C   0  0  0  0  0  0  0  0  0  0  0  0
    3.4013    1.7849    0.0000 C   0  0  0  0  0  0  0  0  0  0  0  0
    2.0000    0.7669    0.0000 C   0  0  0  0  0  0  0  0  0  0  0  0
    2.4067    1.6804    0.0000 C   0  0  0  0  0  0  0  0  0  0  0  0
   12.8699    1.1397    0.0000 C   0  0  0  0  0  0  0  0  0  0  0  0
   11.2236    1.6778    0.0000 C   0  0  0  0  0  0  0  0  0  0  0  0
   11.5342    2.6283    0.0000 C   0  0  0  0  0  0  0  0  0  0  0  0
   13.1806    2.0902    0.0000 C   0  0  0  0  0  0  0  0  0  0  0  0
   12.5127    2.8345    0.0000 C   0  0  0  0  0  0  0  0  0  0  0  0
    8.4793   -0.3585    0.0000 H   0  0  0  0  0  0  0  0  0  0  0  0
    8.4793   -3.5985    0.0000 H   0  0  0  0  0  0  0  0  0  0  0  0
    7.0764   -2.7885    0.0000 H   0  0  0  0  0  0  0  0  0  0  0  0
    3.6128   -1.0184    0.0000 H   0  0  0  0  0  0  0  0  0  0  0  0
    4.3410   -1.3426    0.0000 H   0  0  0  0  0  0  0  0  0  0  0  0
    5.7048   -1.9917    0.0000 H   0  0  0  0  0  0  0  0  0  0  0  0
   10.4842   -3.3726    0.0000 H   0  0  0  0  0  0  0  0  0  0  0  0
   10.1882    0.2382    0.0000 H   0  0  0  0  0  0  0  0  0  0  0  0
    4.6056    1.0407    0.0000 H   0  0  0  0  0  0  0  0  0  0  0  0
    2.3356   -0.6086    0.0000 H   0  0  0  0  0  0  0  0  0  0  0  0
    3.6534    2.3513    0.0000 H   0  0  0  0  0  0  0  0  0  0  0  0
    1.3834    0.7020    0.0000 H   0  0  0  0  0  0  0  0  0  0  0  0
    2.0423    2.1820    0.0000 H   0  0  0  0  0  0  0  0  0  0  0  0
   10.6169    1.5499    0.0000 H   0  0  0  0  0  0  0  0  0  0  0  0
   13.7873    2.2181    0.0000 H   0  0  0  0  0  0  0  0  0  0  0  0
   12.7054    3.4238    0.0000 H   0  0  0  0  0  0  0  0  0  0  0  0
  1 28  1  0  0  0  0
  2 30  1  0  0  0  0
  3 21  2  0  0  0  0
  4  9  1  0  0  0  0
  4 18  1  0  0  0  0
  4 19  1  0  0  0  0
  5  6  1  0  0  0  0
  5 11  1  0  0  0  0
  5 39  1  0  0  0  0
  6 14  2  0  0  0  0
  7 14  1  0  0  0  0
  7 21  1  0  0  0  0
  7 40  1  0  0  0  0
  8  9  2  0  0  0  0
  8 15  1  0  0  0  0
 10 11  2  0  0  0  0
 10 13  1  0  0  0  0
 10 14  1  0  0  0  0
 11 16  1  0  0  0  0
 12 13  2  0  0  0  0
 12 15  1  0  0  0  0
 12 17  1  0  0  0  0
 13 33  1  0  0  0  0
 15 19  2  0  0  0  0
 16 17  2  0  0  0  0
 16 34  1  0  0  0  0
 17 35  1  0  0  0  0
 18 20  1  0  0  0  0
 18 36  1  0  0  0  0
 18 37  1  0  0  0  0
 19 38  1  0  0  0  0
 20 22  2  0  0  0  0
 20 23  1  0  0  0  0
 21 24  1  0  0  0  0
 22 25  1  0  0  0  0
 22 41  1  0  0  0  0
 23 26  2  0  0  0  0
 23 42  1  0  0  0  0
 24 28  2  0  0  0  0
 24 29  1  0  0  0  0
 25 27  2  0  0  0  0
 25 43  1  0  0  0  0
 26 27  1  0  0  0  0
 26 44  1  0  0  0  0
 27 45  1  0  0  0  0
 28 31  1  0  0  0  0
 29 30  2  0  0  0  0
 29 46  1  0  0  0  0
 30 32  1  0  0  0  0
 31 32  2  0  0  0  0
 31 47  1  0  0  0  0
 32 48  1  0  0  0  0
M  END
> <PUBCHEM_COMPOUND_CID>
49830458

> <PUBCHEM_COMPOUND_CANONICALIZED>
1

> <PUBCHEM_CACTVS_COMPLEXITY>
650

> <PUBCHEM_CACTVS_HBOND_ACCEPTOR>
6

> <PUBCHEM_CACTVS_HBOND_DONOR>
2

> <PUBCHEM_CACTVS_ROTATABLE_BOND>
5

> <PUBCHEM_CACTVS_SUBSKEYS>
AAADceB7oYAAAAAAAAAAAAAAAAAAAWLAAAAwYMAAAAAAAFgB/AAAHwAYAAAADAjBngw98PLrAACqAzd3dACSBAY1kgAd+SE4dNiIYLLA3dGUpQhwnQLIyYcYiMCOCAACAAACAAAQAAQAAAQAAAAAAAAAAA==

> <PUBCHEM_IUPAC_OPENEYE_NAME>
N-[5-(1-benzyltriazol-4-yl)-1H-indazol-3-yl]-2,5-difluoro-benzamide

> <PUBCHEM_IUPAC_CAS_NAME>
2,5-difluoro-N-[5-[1-(phenylmethyl)-4-triazolyl]-1H-indazol-3-yl]benzamide

> <PUBCHEM_IUPAC_NAME_MARKUP>
<I>N</I>-[5-(1-benzyltriazol-4-yl)-1<I>H</I>-indazol-3-yl]-2,5-difluorobenzamide

> <PUBCHEM_IUPAC_NAME>
N-[5-(1-benzyltriazol-4-yl)-1H-indazol-3-yl]-2,5-difluorobenzamide

> <PUBCHEM_IUPAC_SYSTEMATIC_NAME>
2,5-bis(fluoranyl)-N-[5-[1-(phenylmethyl)-1,2,3-triazol-4-yl]-1H-indazol-3-yl]benzamide

> <PUBCHEM_IUPAC_TRADITIONAL_NAME>
N-[5-(1-benzyltriazol-4-yl)-1H-indazol-3-yl]-2,5-difluoro-benzamide

> <PUBCHEM_IUPAC_INCHI>
InChI=1S/C23H16F2N6O/c24-16-7-8-19(25)17(11-16)23(32)26-22-18-10-15(6-9-20(18)27-29-22)21-13-31(30-28-21)12-14-4-2-1-3-5-14/h1-11,13H,12H2,(H2,26,27,29,32)

> <PUBCHEM_IUPAC_INCHIKEY>
HJYHJYGXRBYDIG-UHFFFAOYSA-N

> <PUBCHEM_XLOGP3_AA>
3.9

> <PUBCHEM_EXACT_MASS>
430.13536548

> <PUBCHEM_MOLECULAR_FORMULA>
C23H16F2N6O

> <PUBCHEM_MOLECULAR_WEIGHT>
430.4

> <PUBCHEM_SMILES>
C1=CC=C(C=C1)CN2C=C(N=N2)C3=CC4=C(C=C3)NN=C4NC(=O)C5=C(C=CC(=C5)F)F

> <PUBCHEM_OPENEYE_CAN_SMILES>
C1=CC=C(C=C1)CN2C=C(N=N2)C3=CC4=C(C=C3)NN=C4NC(=O)C5=C(C=CC(=C5)F)F

> <PUBCHEM_OPENEYE_ISO_SMILES>
C1=CC=C(C=C1)CN2C=C(N=N2)C3=CC4=C(C=C3)NN=C4NC(=O)C5=C(C=CC(=C5)F)F

> <PUBCHEM_CACTVS_TPSA>
88.5

> <PUBCHEM_MONOISOTOPIC_WEIGHT>
430.13536548

> <PUBCHEM_TOTAL_CHARGE>
0

> <PUBCHEM_HEAVY_ATOM_COUNT>
32

> <PUBCHEM_ATOM_DEF_STEREO_COUNT>
0

> <PUBCHEM_ATOM_UDEF_STEREO_COUNT>
0

> <PUBCHEM_BOND_DEF_STEREO_COUNT>
0

> <PUBCHEM_BOND_UDEF_STEREO_COUNT>
0

> <PUBCHEM_ISOTOPIC_ATOM_COUNT>
0

> <PUBCHEM_COMPONENT_COUNT>
1

> <PUBCHEM_CACTVS_TAUTO_COUNT>
-1

> <PUBCHEM_COORDINATE_TYPE>
1
5
255

> <PUBCHEM_BONDANNOTATIONS>
10  11  8
10  13  8
10  14  8
11  16  8
12  13  8
12  17  8
15  19  8
16  17  8
20  22  8
20  23  8
22  25  8
23  26  8
24  28  8
24  29  8
25  27  8
26  27  8
28  31  8
29  30  8
30  32  8
31  32  8
4  19  8
4  9  8
5  11  8
5  6  8
6  14  8
8  15  8
8  9  8

$$$$
