49830818
  -OEChem-03202503502D

 54 57  0     0  0  0  0  0  0999 V2000
    7.2641   -3.5950    0.0000 S   0  0  0  0  0  0  0  0  0  0  0  0
    6.7641   -4.4610    0.0000 O   0  0  0  0  0  0  0  0  0  0  0  0
    7.7641   -2.7290    0.0000 O   0  0  0  0  0  0  0  0  0  0  0  0
    6.3981   -0.0950    0.0000 O   0  0  0  0  0  0  0  0  0  0  0  0
    4.6660    6.9050    0.0000 O   0  0  0  0  0  0  0  0  0  0  0  0
    8.1301   -4.0950    0.0000 N   0  0  0  0  0  0  0  0  0  0  0  0
    4.6660   -0.0950    0.0000 N   0  0  0  0  0  0  0  0  0  0  0  0
    5.5321    4.4050    0.0000 N   0  0  0  0  0  0  0  0  0  0  0  0
    5.5321    5.4050    0.0000 N   0  0  0  0  0  0  0  0  0  0  0  0
    8.9962   -6.5950    0.0000 N   0  0  0  0  0  0  0  0  0  0  0  0
    6.3981   -3.0950    0.0000 C   0  0  0  0  0  0  0  0  0  0  0  0
    3.8000    4.4050    0.0000 C   0  0  0  0  0  0  0  0  0  0  0  0
    4.6660    3.9050    0.0000 C   0  0  0  0  0  0  0  0  0  0  0  0
    4.6660    2.9050    0.0000 C   0  0  0  0  0  0  0  0  0  0  0  0
    3.8000    5.4050    0.0000 C   0  0  0  0  0  0  0  0  0  0  0  0
    5.5321   -1.5950    0.0000 C   0  0  0  0  0  0  0  0  0  0  0  0
    6.3981   -2.0950    0.0000 C   0  0  0  0  0  0  0  0  0  0  0  0
    8.1301   -5.0950    0.0000 C   0  0  0  0  0  0  0  0  0  0  0  0
    4.6660    0.9050    0.0000 C   0  0  0  0  0  0  0  0  0  0  0  0
    5.5321   -3.5950    0.0000 C   0  0  0  0  0  0  0  0  0  0  0  0
    5.5321    2.4050    0.0000 C   0  0  0  0  0  0  0  0  0  0  0  0
    3.8000    2.4050    0.0000 C   0  0  0  0  0  0  0  0  0  0  0  0
    2.9061    3.8703    0.0000 C   0  0  0  0  0  0  0  0  0  0  0  0
    5.5321   -0.5950    0.0000 C   0  0  0  0  0  0  0  0  0  0  0  0
    5.5321    1.4050    0.0000 C   0  0  0  0  0  0  0  0  0  0  0  0
    3.8000    1.4050    0.0000 C   0  0  0  0  0  0  0  0  0  0  0  0
    4.6660   -2.0950    0.0000 C   0  0  0  0  0  0  0  0  0  0  0  0
    4.6660   -3.0950    0.0000 C   0  0  0  0  0  0  0  0  0  0  0  0
    8.9962   -5.5950    0.0000 C   0  0  0  0  0  0  0  0  0  0  0  0
    4.6660    5.9050    0.0000 C   0  0  0  0  0  0  0  0  0  0  0  0
    2.9061    5.9397    0.0000 C   0  0  0  0  0  0  0  0  0  0  0  0
    2.0000    4.3842    0.0000 C   0  0  0  0  0  0  0  0  0  0  0  0
    2.0000    5.4258    0.0000 C   0  0  0  0  0  0  0  0  0  0  0  0
    6.9350   -1.7850    0.0000 H   0  0  0  0  0  0  0  0  0  0  0  0
    8.6671   -3.7850    0.0000 H   0  0  0  0  0  0  0  0  0  0  0  0
    7.5196   -4.9873    0.0000 H   0  0  0  0  0  0  0  0  0  0  0  0
    7.9181   -5.6776    0.0000 H   0  0  0  0  0  0  0  0  0  0  0  0
    5.5321   -4.2150    0.0000 H   0  0  0  0  0  0  0  0  0  0  0  0
    6.0690    2.7150    0.0000 H   0  0  0  0  0  0  0  0  0  0  0  0
    3.2631    2.7150    0.0000 H   0  0  0  0  0  0  0  0  0  0  0  0
    2.9132    3.2504    0.0000 H   0  0  0  0  0  0  0  0  0  0  0  0
    6.0690    1.0950    0.0000 H   0  0  0  0  0  0  0  0  0  0  0  0
    3.2631    1.0950    0.0000 H   0  0  0  0  0  0  0  0  0  0  0  0
    4.1291   -1.7850    0.0000 H   0  0  0  0  0  0  0  0  0  0  0  0
    4.1291   -0.4050    0.0000 H   0  0  0  0  0  0  0  0  0  0  0  0
    9.6067   -5.7027    0.0000 H   0  0  0  0  0  0  0  0  0  0  0  0
    9.2082   -5.0124    0.0000 H   0  0  0  0  0  0  0  0  0  0  0  0
    4.1291   -3.4050    0.0000 H   0  0  0  0  0  0  0  0  0  0  0  0
    2.9132    6.5596    0.0000 H   0  0  0  0  0  0  0  0  0  0  0  0
    1.4643    4.0721    0.0000 H   0  0  0  0  0  0  0  0  0  0  0  0
    6.0690    5.7150    0.0000 H   0  0  0  0  0  0  0  0  0  0  0  0
    1.4643    5.7379    0.0000 H   0  0  0  0  0  0  0  0  0  0  0  0
    9.5331   -6.9050    0.0000 H   0  0  0  0  0  0  0  0  0  0  0  0
    8.4592   -6.9050    0.0000 H   0  0  0  0  0  0  0  0  0  0  0  0
  1  2  2  0  0  0  0
  1  3  2  0  0  0  0
  1  6  1  0  0  0  0
  1 11  1  0  0  0  0
  4 24  2  0  0  0  0
  5 30  2  0  0  0  0
  6 18  1  0  0  0  0
  6 35  1  0  0  0  0
  7 19  1  0  0  0  0
  7 24  1  0  0  0  0
  7 45  1  0  0  0  0
  8  9  1  0  0  0  0
  8 13  2  0  0  0  0
  9 30  1  0  0  0  0
  9 51  1  0  0  0  0
 10 29  1  0  0  0  0
 10 53  1  0  0  0  0
 10 54  1  0  0  0  0
 11 17  1  0  0  0  0
 11 20  2  0  0  0  0
 12 13  1  0  0  0  0
 12 15  1  0  0  0  0
 12 23  2  0  0  0  0
 13 14  1  0  0  0  0
 14 21  2  0  0  0  0
 14 22  1  0  0  0  0
 15 30  1  0  0  0  0
 15 31  2  0  0  0  0
 16 17  2  0  0  0  0
 16 24  1  0  0  0  0
 16 27  1  0  0  0  0
 17 34  1  0  0  0  0
 18 29  1  0  0  0  0
 18 36  1  0  0  0  0
 18 37  1  0  0  0  0
 19 25  2  0  0  0  0
 19 26  1  0  0  0  0
 20 28  1  0  0  0  0
 20 38  1  0  0  0  0
 21 25  1  0  0  0  0
 21 39  1  0  0  0  0
 22 26  2  0  0  0  0
 22 40  1  0  0  0  0
 23 32  1  0  0  0  0
 23 41  1  0  0  0  0
 25 42  1  0  0  0  0
 26 43  1  0  0  0  0
 27 28  2  0  0  0  0
 27 44  1  0  0  0  0
 28 48  1  0  0  0  0
 29 46  1  0  0  0  0
 29 47  1  0  0  0  0
 31 33  1  0  0  0  0
 31 49  1  0  0  0  0
 32 33  2  0  0  0  0
 32 50  1  0  0  0  0
 33 52  1  0  0  0  0
M  END
> <PUBCHEM_COMPOUND_CID>
49830818

> <PUBCHEM_COMPOUND_CANONICALIZED>
1

> <PUBCHEM_CACTVS_COMPLEXITY>
847

> <PUBCHEM_CACTVS_HBOND_ACCEPTOR>
7

> <PUBCHEM_CACTVS_HBOND_DONOR>
4

> <PUBCHEM_CACTVS_ROTATABLE_BOND>
7

> <PUBCHEM_CACTVS_SUBSKEYS>
AAADceB7uABAAAAAAAAAAAAAAAAAAAAAAAAwYMEAAAAAAACBUAAAHgQYQAAADAjB2AQwwYLiAAKoAyVyUHDSABAlAgAaiJkgZNgIYLLAlZGEIQhgnADIyYcYiMCOiAAAgAAQAAAQAAEAACAAAAAAAAAAAA==

> <PUBCHEM_IUPAC_OPENEYE_NAME>
3-(2-aminoethylsulfamoyl)-N-[4-(4-oxo-3H-phthalazin-1-yl)phenyl]benzamide

> <PUBCHEM_IUPAC_CAS_NAME>
3-(2-aminoethylsulfamoyl)-N-[4-(4-oxo-3H-phthalazin-1-yl)phenyl]benzamide

> <PUBCHEM_IUPAC_NAME_MARKUP>
3-(2-aminoethylsulfamoyl)-<I>N</I>-[4-(4-oxo-3<I>H</I>-phthalazin-1-yl)phenyl]benzamide

> <PUBCHEM_IUPAC_NAME>
3-(2-aminoethylsulfamoyl)-N-[4-(4-oxo-3H-phthalazin-1-yl)phenyl]benzamide

> <PUBCHEM_IUPAC_SYSTEMATIC_NAME>
3-(2-azanylethylsulfamoyl)-N-[4-(4-oxidanylidene-3H-phthalazin-1-yl)phenyl]benzamide

> <PUBCHEM_IUPAC_TRADITIONAL_NAME>
3-(2-aminoethylsulfamoyl)-N-[4-(4-keto-3H-phthalazin-1-yl)phenyl]benzamide

> <PUBCHEM_IUPAC_INCHI>
InChI=1S/C23H21N5O4S/c24-12-13-25-33(31,32)18-5-3-4-16(14-18)22(29)26-17-10-8-15(9-11-17)21-19-6-1-2-7-20(19)23(30)28-27-21/h1-11,14,25H,12-13,24H2,(H,26,29)(H,28,30)

> <PUBCHEM_IUPAC_INCHIKEY>
OPLHMHMCXQXEQG-UHFFFAOYSA-N

> <PUBCHEM_XLOGP3_AA>
1.5

> <PUBCHEM_EXACT_MASS>
463.13142534

> <PUBCHEM_MOLECULAR_FORMULA>
C23H21N5O4S

> <PUBCHEM_MOLECULAR_WEIGHT>
463.5

> <PUBCHEM_SMILES>
C1=CC=C2C(=C1)C(=NNC2=O)C3=CC=C(C=C3)NC(=O)C4=CC(=CC=C4)S(=O)(=O)NCCN

> <PUBCHEM_OPENEYE_CAN_SMILES>
C1=CC=C2C(=C1)C(=NNC2=O)C3=CC=C(C=C3)NC(=O)C4=CC(=CC=C4)S(=O)(=O)NCCN

> <PUBCHEM_OPENEYE_ISO_SMILES>
C1=CC=C2C(=C1)C(=NNC2=O)C3=CC=C(C=C3)NC(=O)C4=CC(=CC=C4)S(=O)(=O)NCCN

> <PUBCHEM_CACTVS_TPSA>
151

> <PUBCHEM_MONOISOTOPIC_WEIGHT>
463.13142534

> <PUBCHEM_TOTAL_CHARGE>
0

> <PUBCHEM_HEAVY_ATOM_COUNT>
33

> <PUBCHEM_ATOM_DEF_STEREO_COUNT>
0

> <PUBCHEM_ATOM_UDEF_STEREO_COUNT>
0

> <PUBCHEM_BOND_DEF_STEREO_COUNT>
0

> <PUBCHEM_BOND_UDEF_STEREO_COUNT>
0

> <PUBCHEM_ISOTOPIC_ATOM_COUNT>
0

> <PUBCHEM_COMPONENT_COUNT>
1

> <PUBCHEM_CACTVS_TAUTO_COUNT>
-1

> <PUBCHEM_COORDINATE_TYPE>
1
5
255

> <PUBCHEM_BONDANNOTATIONS>
11  17  8
11  20  8
12  13  8
12  15  8
12  23  8
14  21  8
14  22  8
15  30  8
15  31  8
16  17  8
16  27  8
19  25  8
19  26  8
20  28  8
21  25  8
22  26  8
23  32  8
27  28  8
31  33  8
32  33  8
8  13  8
8  9  8
9  30  8

$$$$
