44370225
  -OEChem-03202505402D

 65 71  0     1  0  0  0  0  0999 V2000
    5.7342   -3.3446    0.0000 Cl  0  0  0  0  0  0  0  0  0  0  0  0
    5.5547    3.3529    0.0000 Cl  0  0  0  0  0  0  0  0  0  0  0  0
    5.2927    0.2365    0.0000 O   0  0  0  0  0  0  0  0  0  0  0  0
    5.2462   -2.4088    0.0000 O   0  0  0  0  0  0  0  0  0  0  0  0
    2.6678   -0.0953    0.0000 O   0  0  0  0  0  0  0  0  0  0  0  0
    3.2892   -1.9964    0.0000 O   0  0  0  0  0  0  0  0  0  0  0  0
    3.0250    1.5995    0.0000 O   0  0  0  0  0  0  0  0  0  0  0  0
   10.3078   -1.5084    0.0000 O   0  0  0  0  0  0  0  0  0  0  0  0
   10.3078    2.0021    0.0000 O   0  0  0  0  0  0  0  0  0  0  0  0
    4.8890   -4.1036    0.0000 O   0  0  0  0  0  0  0  0  0  0  0  0
    6.5819   -0.9202    0.0000 N   0  0  0  0  0  0  0  0  0  0  0  0
    6.5819    1.4140    0.0000 N   0  0  0  0  0  0  0  0  0  0  0  0
   10.5808    0.2469    0.0000 N   0  0  0  0  0  0  0  0  0  0  0  0
    5.6034   -0.7140    0.0000 C   0  0  3  0  0  0  0  0  0  0  0  0
    4.9355   -1.4583    0.0000 C   0  0  3  0  0  0  0  0  0  0  0  0
    3.9570   -1.2521    0.0000 C   0  0  3  0  0  0  0  0  0  0  0  0
    3.6464   -0.3015    0.0000 C   0  0  3  0  0  0  0  0  0  0  0  0
    4.3142    0.4428    0.0000 C   0  0  3  0  0  0  0  0  0  0  0  0
    7.3189   -0.2531    0.0000 C   0  0  0  0  0  0  0  0  0  0  0  0
    8.1849   -0.7531    0.0000 C   0  0  0  0  0  0  0  0  0  0  0  0
    6.9870   -1.8280    0.0000 C   0  0  0  0  0  0  0  0  0  0  0  0
    7.3189    0.7469    0.0000 C   0  0  0  0  0  0  0  0  0  0  0  0
    7.9757   -1.7249    0.0000 C   0  0  0  0  0  0  0  0  0  0  0  0
    8.1849    1.2469    0.0000 C   0  0  0  0  0  0  0  0  0  0  0  0
    9.0509   -0.2531    0.0000 C   0  0  0  0  0  0  0  0  0  0  0  0
    9.0509    0.7469    0.0000 C   0  0  0  0  0  0  0  0  0  0  0  0
    4.0035    1.3933    0.0000 C   0  0  0  0  0  0  0  0  0  0  0  0
    7.9757    2.2187    0.0000 C   0  0  0  0  0  0  0  0  0  0  0  0
    6.5505   -2.7669    0.0000 C   0  0  0  0  0  0  0  0  0  0  0  0
    6.9870    2.3218    0.0000 C   0  0  0  0  0  0  0  0  0  0  0  0
    8.5965   -2.5537    0.0000 C   0  0  0  0  0  0  0  0  0  0  0  0
    9.9972   -0.5578    0.0000 C   0  0  0  0  0  0  0  0  0  0  0  0
    9.9972    1.0516    0.0000 C   0  0  0  0  0  0  0  0  0  0  0  0
    7.1519   -3.6098    0.0000 C   0  0  0  0  0  0  0  0  0  0  0  0
    8.1818   -3.5025    0.0000 C   0  0  0  0  0  0  0  0  0  0  0  0
    8.5965    3.0475    0.0000 C   0  0  0  0  0  0  0  0  0  0  0  0
    4.5783   -3.1531    0.0000 C   0  0  0  0  0  0  0  0  0  0  0  0
    2.0000   -0.8396    0.0000 C   0  0  0  0  0  0  0  0  0  0  0  0
    6.5505    3.2607    0.0000 C   0  0  0  0  0  0  0  0  0  0  0  0
    8.1818    3.9963    0.0000 C   0  0  0  0  0  0  0  0  0  0  0  0
    7.1519    4.1036    0.0000 C   0  0  0  0  0  0  0  0  0  0  0  0
    3.5998   -2.9469    0.0000 C   0  0  0  0  0  0  0  0  0  0  0  0
    6.0174   -0.2525    0.0000 H   0  0  0  0  0  0  0  0  0  0  0  0
    4.5214   -1.9197    0.0000 H   0  0  0  0  0  0  0  0  0  0  0  0
    3.3503   -1.1242    0.0000 H   0  0  0  0  0  0  0  0  0  0  0  0
    3.2323   -0.7630    0.0000 H   0  0  0  0  0  0  0  0  0  0  0  0
    4.7283    0.9042    0.0000 H   0  0  0  0  0  0  0  0  0  0  0  0
    4.6174    1.4806    0.0000 H   0  0  0  0  0  0  0  0  0  0  0  0
    4.0241    2.0129    0.0000 H   0  0  0  0  0  0  0  0  0  0  0  0
    5.9752    1.2861    0.0000 H   0  0  0  0  0  0  0  0  0  0  0  0
    2.6825   -1.8685    0.0000 H   0  0  0  0  0  0  0  0  0  0  0  0
    9.2123   -2.4823    0.0000 H   0  0  0  0  0  0  0  0  0  0  0  0
   11.2008    0.2469    0.0000 H   0  0  0  0  0  0  0  0  0  0  0  0
    6.8970   -4.1750    0.0000 H   0  0  0  0  0  0  0  0  0  0  0  0
    8.5477   -4.0030    0.0000 H   0  0  0  0  0  0  0  0  0  0  0  0
    9.2123    2.9761    0.0000 H   0  0  0  0  0  0  0  0  0  0  0  0
    1.5385   -0.4256    0.0000 H   0  0  0  0  0  0  0  0  0  0  0  0
    1.5859   -1.3011    0.0000 H   0  0  0  0  0  0  0  0  0  0  0  0
    2.4615   -1.2537    0.0000 H   0  0  0  0  0  0  0  0  0  0  0  0
    2.8324    2.1888    0.0000 H   0  0  0  0  0  0  0  0  0  0  0  0
    8.5477    4.4968    0.0000 H   0  0  0  0  0  0  0  0  0  0  0  0
    6.8970    4.6688    0.0000 H   0  0  0  0  0  0  0  0  0  0  0  0
    3.7277   -2.3402    0.0000 H   0  0  0  0  0  0  0  0  0  0  0  0
    2.9932   -2.8190    0.0000 H   0  0  0  0  0  0  0  0  0  0  0  0
    3.4720   -3.5536    0.0000 H   0  0  0  0  0  0  0  0  0  0  0  0
  1 29  1  0  0  0  0
  2 39  1  0  0  0  0
  3 14  1  0  0  0  0
  3 18  1  0  0  0  0
  4 15  1  0  0  0  0
  4 37  1  0  0  0  0
  5 17  1  0  0  0  0
  5 38  1  0  0  0  0
  6 16  1  0  0  0  0
  6 51  1  0  0  0  0
  7 27  1  0  0  0  0
  7 60  1  0  0  0  0
  8 32  2  0  0  0  0
  9 33  2  0  0  0  0
 10 37  2  0  0  0  0
 11 14  1  0  0  0  0
 11 19  1  0  0  0  0
 11 21  1  0  0  0  0
 12 22  1  0  0  0  0
 12 30  1  0  0  0  0
 12 50  1  0  0  0  0
 13 32  1  0  0  0  0
 13 33  1  0  0  0  0
 13 53  1  0  0  0  0
 14 15  1  0  0  0  0
 14 43  1  0  0  0  0
 15 16  1  0  0  0  0
 15 44  1  0  0  0  0
 16 17  1  0  0  0  0
 16 45  1  0  0  0  0
 17 18  1  0  0  0  0
 17 46  1  0  0  0  0
 18 27  1  0  0  0  0
 18 47  1  0  0  0  0
 19 20  1  0  0  0  0
 19 22  2  0  0  0  0
 20 23  1  0  0  0  0
 20 25  2  0  0  0  0
 21 23  2  0  0  0  0
 21 29  1  0  0  0  0
 22 24  1  0  0  0  0
 23 31  1  0  0  0  0
 24 26  2  0  0  0  0
 24 28  1  0  0  0  0
 25 26  1  0  0  0  0
 25 32  1  0  0  0  0
 26 33  1  0  0  0  0
 27 48  1  0  0  0  0
 27 49  1  0  0  0  0
 28 30  2  0  0  0  0
 28 36  1  0  0  0  0
 29 34  2  0  0  0  0
 30 39  1  0  0  0  0
 31 35  2  0  0  0  0
 31 52  1  0  0  0  0
 34 35  1  0  0  0  0
 34 54  1  0  0  0  0
 35 55  1  0  0  0  0
 36 40  2  0  0  0  0
 36 56  1  0  0  0  0
 37 42  1  0  0  0  0
 38 57  1  0  0  0  0
 38 58  1  0  0  0  0
 38 59  1  0  0  0  0
 39 41  2  0  0  0  0
 40 41  1  0  0  0  0
 40 61  1  0  0  0  0
 41 62  1  0  0  0  0
 42 63  1  0  0  0  0
 42 64  1  0  0  0  0
 42 65  1  0  0  0  0
M  END
> <PUBCHEM_COMPOUND_CID>
44370225

> <PUBCHEM_COMPOUND_CANONICALIZED>
1

> <PUBCHEM_CACTVS_COMPLEXITY>
1120

> <PUBCHEM_CACTVS_HBOND_ACCEPTOR>
8

> <PUBCHEM_CACTVS_HBOND_DONOR>
4

> <PUBCHEM_CACTVS_ROTATABLE_BOND>
5

> <PUBCHEM_CACTVS_SUBSKEYS>
AAADceB7PAAGAAAAAAAAAAAAAAAAAWLFgAA0YMEAAAAAAFgB/gAAHgIQCAAADB7hniYyyPPNlgCoAyXyXACCgCQlFSAI2SEoVtgLcPLBl5HfYQhnhCDbyQf9+c6eyAACYAASADCQAATAACQAYAAAAAAAAA==

> <PUBCHEM_IUPAC_OPENEYE_NAME>
[2-(5,21-dichloro-12,14-dioxo-3,13,23-triazahexacyclo[14.7.0.02,10.04,9.011,15.017,22]tricosa-1,4(9),5,7,10,15,17(22),18,20-nonaen-3-yl)-4-hydroxy-6-(hydroxymethyl)-5-methoxy-tetrahydropyran-3-yl] acetate

> <PUBCHEM_IUPAC_CAS_NAME>
acetic acid [2-(5,21-dichloro-12,14-dioxo-3,13,23-triazahexacyclo[14.7.0.02,10.04,9.011,15.017,22]tricosa-1,4(9),5,7,10,15,17(22),18,20-nonaen-3-yl)-4-hydroxy-6-(hydroxymethyl)-5-methoxy-3-oxanyl] ester

> <PUBCHEM_IUPAC_NAME_MARKUP>
[2-(5,21-dichloro-12,14-dioxo-3,13,23-triazahexacyclo[14.7.0.0<SUP>2,10</SUP>.0<SUP>4,9</SUP>.0<SUP>11,15</SUP>.0<SUP>17,22</SUP>]tricosa-1,4(9),5,7,10,15,17(22),18,20-nonaen-3-yl)-4-hydroxy-6-(hydroxymethyl)-5-methoxyoxan-3-yl] acetate

> <PUBCHEM_IUPAC_NAME>
[2-(5,21-dichloro-12,14-dioxo-3,13,23-triazahexacyclo[14.7.0.02,10.04,9.011,15.017,22]tricosa-1,4(9),5,7,10,15,17(22),18,20-nonaen-3-yl)-4-hydroxy-6-(hydroxymethyl)-5-methoxyoxan-3-yl] acetate

> <PUBCHEM_IUPAC_SYSTEMATIC_NAME>
[2-[5,21-bis(chloranyl)-12,14-bis(oxidanylidene)-3,13,23-triazahexacyclo[14.7.0.02,10.04,9.011,15.017,22]tricosa-1,4(9),5,7,10,15,17(22),18,20-nonaen-3-yl]-6-(hydroxymethyl)-5-methoxy-4-oxidanyl-oxan-3-yl] ethanoate

> <PUBCHEM_IUPAC_TRADITIONAL_NAME>
acetic acid [2-(5,21-dichloro-12,14-diketo-3,13,23-triazahexacyclo[14.7.0.02,10.04,9.011,15.017,22]tricosa-1,4(9),5,7,10,15,17(22),18,20-nonaen-3-yl)-4-hydroxy-5-methoxy-6-methylol-tetrahydropyran-3-yl] ester

> <PUBCHEM_IUPAC_INCHI>
InChI=1S/C29H23Cl2N3O8/c1-10(36)41-26-24(37)25(40-2)15(9-35)42-29(26)34-22-12(6-4-8-14(22)31)17-19-18(27(38)33-28(19)39)16-11-5-3-7-13(30)20(11)32-21(16)23(17)34/h3-8,15,24-26,29,32,35,37H,9H2,1-2H3,(H,33,38,39)

> <PUBCHEM_IUPAC_INCHIKEY>
DJEHIHYFWKWDGG-UHFFFAOYSA-N

> <PUBCHEM_XLOGP3_AA>
3.2

> <PUBCHEM_EXACT_MASS>
611.0862201

> <PUBCHEM_MOLECULAR_FORMULA>
C29H23Cl2N3O8

> <PUBCHEM_MOLECULAR_WEIGHT>
612.4

> <PUBCHEM_SMILES>
CC(=O)OC1C(C(C(OC1N2C3=C(C=CC=C3Cl)C4=C5C(=C6C7=C(C(=CC=C7)Cl)NC6=C42)C(=O)NC5=O)CO)OC)O

> <PUBCHEM_OPENEYE_CAN_SMILES>
CC(=O)OC1C(C(C(OC1N2C3=C(C=CC=C3Cl)C4=C5C(=C6C7=C(C(=CC=C7)Cl)NC6=C42)C(=O)NC5=O)CO)OC)O

> <PUBCHEM_OPENEYE_ISO_SMILES>
CC(=O)OC1C(C(C(OC1N2C3=C(C=CC=C3Cl)C4=C5C(=C6C7=C(C(=CC=C7)Cl)NC6=C42)C(=O)NC5=O)CO)OC)O

> <PUBCHEM_CACTVS_TPSA>
152

> <PUBCHEM_MONOISOTOPIC_WEIGHT>
611.0862201

> <PUBCHEM_TOTAL_CHARGE>
0

> <PUBCHEM_HEAVY_ATOM_COUNT>
42

> <PUBCHEM_ATOM_DEF_STEREO_COUNT>
0

> <PUBCHEM_ATOM_UDEF_STEREO_COUNT>
5

> <PUBCHEM_BOND_DEF_STEREO_COUNT>
0

> <PUBCHEM_BOND_UDEF_STEREO_COUNT>
0

> <PUBCHEM_ISOTOPIC_ATOM_COUNT>
0

> <PUBCHEM_COMPONENT_COUNT>
1

> <PUBCHEM_CACTVS_TAUTO_COUNT>
-1

> <PUBCHEM_COORDINATE_TYPE>
1
5
255

> <PUBCHEM_BONDANNOTATIONS>
14  11  3
11  19  8
11  21  8
12  22  8
12  30  8
18  27  3
19  20  8
19  22  8
20  23  8
20  25  8
21  23  8
21  29  8
22  24  8
23  31  8
24  26  8
24  28  8
25  26  8
28  30  8
28  36  8
29  34  8
30  39  8
31  35  8
34  35  8
36  40  8
39  41  8
15  4  3
40  41  8
17  5  3
16  6  3

$$$$
