9911005
  -OEChem-03202507372D

 54 57  0     0  0  0  0  0  0999 V2000
    5.4400   -1.4973    0.0000 O   0  0  0  0  0  0  0  0  0  0  0  0
    2.8660    3.0270    0.0000 O   0  0  0  0  0  0  0  0  0  0  0  0
    2.8660    5.0270    0.0000 O   0  0  0  0  0  0  0  0  0  0  0  0
    7.9859   -6.0270    0.0000 O   0  5  0  0  0  0  0  0  0  0  0  0
    6.2540   -6.0070    0.0000 O   0  0  0  0  0  0  0  0  0  0  0  0
    6.3465    1.9924    0.0000 N   0  0  0  0  0  0  0  0  0  0  0  0
    6.3233   -0.0074    0.0000 N   0  0  0  0  0  0  0  0  0  0  0  0
    7.2641    3.5062    0.0000 N   0  0  0  0  0  0  0  0  0  0  0  0
    7.1720   -1.5173    0.0000 N   0  0  0  0  0  0  0  0  0  0  0  0
    6.3580    5.0617    0.0000 N   0  0  0  0  0  0  0  0  0  0  0  0
    7.1257   -5.5171    0.0000 N   0  3  0  0  0  0  0  0  0  0  0  0
    7.2067    1.4825    0.0000 C   0  0  0  0  0  0  0  0  0  0  0  0
    5.4747    1.5025    0.0000 C   0  0  0  0  0  0  0  0  0  0  0  0
    7.1951    0.4825    0.0000 C   0  0  0  0  0  0  0  0  0  0  0  0
    5.4632    0.5026    0.0000 C   0  0  0  0  0  0  0  0  0  0  0  0
    6.3580    2.9924    0.0000 C   0  0  0  0  0  0  0  0  0  0  0  0
    6.3118   -1.0074    0.0000 C   0  0  0  0  0  0  0  0  0  0  0  0
    5.4641    3.5270    0.0000 C   0  0  0  0  0  0  0  0  0  0  0  0
    5.4641    4.5270    0.0000 C   0  0  0  0  0  0  0  0  0  0  0  0
    4.5981    3.0270    0.0000 C   0  0  0  0  0  0  0  0  0  0  0  0
    4.5981    5.0270    0.0000 C   0  0  0  0  0  0  0  0  0  0  0  0
    3.7320    3.5270    0.0000 C   0  0  0  0  0  0  0  0  0  0  0  0
    7.2641    4.5479    0.0000 C   0  0  0  0  0  0  0  0  0  0  0  0
    3.7320    4.5270    0.0000 C   0  0  0  0  0  0  0  0  0  0  0  0
    7.1604   -2.5173    0.0000 C   0  0  0  0  0  0  0  0  0  0  0  0
    8.0206   -3.0272    0.0000 C   0  0  0  0  0  0  0  0  0  0  0  0
    6.2887   -3.0072    0.0000 C   0  0  0  0  0  0  0  0  0  0  0  0
    8.0090   -4.0272    0.0000 C   0  0  0  0  0  0  0  0  0  0  0  0
    6.2771   -4.0072    0.0000 C   0  0  0  0  0  0  0  0  0  0  0  0
    7.1373   -4.5171    0.0000 C   0  0  0  0  0  0  0  0  0  0  0  0
    2.0000    3.5270    0.0000 C   0  0  0  0  0  0  0  0  0  0  0  0
    2.8660    6.0270    0.0000 C   0  0  0  0  0  0  0  0  0  0  0  0
    7.8160    1.3678    0.0000 H   0  0  0  0  0  0  0  0  0  0  0  0
    7.4254    2.0626    0.0000 H   0  0  0  0  0  0  0  0  0  0  0  0
    5.2694    2.0875    0.0000 H   0  0  0  0  0  0  0  0  0  0  0  0
    4.8630    1.4019    0.0000 H   0  0  0  0  0  0  0  0  0  0  0  0
    7.4004   -0.1025    0.0000 H   0  0  0  0  0  0  0  0  0  0  0  0
    7.8069    0.5831    0.0000 H   0  0  0  0  0  0  0  0  0  0  0  0
    4.8539    0.6173    0.0000 H   0  0  0  0  0  0  0  0  0  0  0  0
    5.2444   -0.0776    0.0000 H   0  0  0  0  0  0  0  0  0  0  0  0
    4.5981    2.4070    0.0000 H   0  0  0  0  0  0  0  0  0  0  0  0
    7.7125   -1.2136    0.0000 H   0  0  0  0  0  0  0  0  0  0  0  0
    4.5981    5.6470    0.0000 H   0  0  0  0  0  0  0  0  0  0  0  0
    7.7998    4.8599    0.0000 H   0  0  0  0  0  0  0  0  0  0  0  0
    8.5611   -2.7235    0.0000 H   0  0  0  0  0  0  0  0  0  0  0  0
    5.7554   -2.6910    0.0000 H   0  0  0  0  0  0  0  0  0  0  0  0
    8.5424   -4.3434    0.0000 H   0  0  0  0  0  0  0  0  0  0  0  0
    5.7366   -4.3109    0.0000 H   0  0  0  0  0  0  0  0  0  0  0  0
    2.3100    4.0640    0.0000 H   0  0  0  0  0  0  0  0  0  0  0  0
    1.4631    3.8370    0.0000 H   0  0  0  0  0  0  0  0  0  0  0  0
    1.6900    2.9901    0.0000 H   0  0  0  0  0  0  0  0  0  0  0  0
    3.4860    6.0270    0.0000 H   0  0  0  0  0  0  0  0  0  0  0  0
    2.8660    6.6470    0.0000 H   0  0  0  0  0  0  0  0  0  0  0  0
    2.2460    6.0270    0.0000 H   0  0  0  0  0  0  0  0  0  0  0  0
  1 17  2  0  0  0  0
  2 22  1  0  0  0  0
  2 31  1  0  0  0  0
  3 24  1  0  0  0  0
  3 32  1  0  0  0  0
  4 11  1  0  0  0  0
  5 11  2  0  0  0  0
  6 12  1  0  0  0  0
  6 13  1  0  0  0  0
  6 16  1  0  0  0  0
  7 14  1  0  0  0  0
  7 15  1  0  0  0  0
  7 17  1  0  0  0  0
  8 16  2  0  0  0  0
  8 23  1  0  0  0  0
  9 17  1  0  0  0  0
  9 25  1  0  0  0  0
  9 42  1  0  0  0  0
 10 19  1  0  0  0  0
 10 23  2  0  0  0  0
 11 30  1  0  0  0  0
 12 14  1  0  0  0  0
 12 33  1  0  0  0  0
 12 34  1  0  0  0  0
 13 15  1  0  0  0  0
 13 35  1  0  0  0  0
 13 36  1  0  0  0  0
 14 37  1  0  0  0  0
 14 38  1  0  0  0  0
 15 39  1  0  0  0  0
 15 40  1  0  0  0  0
 16 18  1  0  0  0  0
 18 19  1  0  0  0  0
 18 20  2  0  0  0  0
 19 21  2  0  0  0  0
 20 22  1  0  0  0  0
 20 41  1  0  0  0  0
 21 24  1  0  0  0  0
 21 43  1  0  0  0  0
 22 24  2  0  0  0  0
 23 44  1  0  0  0  0
 25 26  2  0  0  0  0
 25 27  1  0  0  0  0
 26 28  1  0  0  0  0
 26 45  1  0  0  0  0
 27 29  2  0  0  0  0
 27 46  1  0  0  0  0
 28 30  2  0  0  0  0
 28 47  1  0  0  0  0
 29 30  1  0  0  0  0
 29 48  1  0  0  0  0
 31 49  1  0  0  0  0
 31 50  1  0  0  0  0
 31 51  1  0  0  0  0
 32 52  1  0  0  0  0
 32 53  1  0  0  0  0
 32 54  1  0  0  0  0
M  CHG  2   4  -1  11   1
M  END
> <PUBCHEM_COMPOUND_CID>
9911005

> <PUBCHEM_COMPOUND_CANONICALIZED>
1

> <PUBCHEM_CACTVS_COMPLEXITY>
647

> <PUBCHEM_CACTVS_HBOND_ACCEPTOR>
8

> <PUBCHEM_CACTVS_HBOND_DONOR>
1

> <PUBCHEM_CACTVS_ROTATABLE_BOND>
4

> <PUBCHEM_CACTVS_SUBSKEYS>
AAADceB7uAAAAAAAAAAAAAAAAAAAAAAAAAA8eIEAAAAAAACx9AAAHgAUAAAADAzBngY39vfYVACpAyZjdwCCiCkxIqAp2CA+7JqNbqLE+duUNCpu1hvK6Cew0BMOIECBAgACQABAgQIEAASAAAAAAAAAAA==

> <PUBCHEM_IUPAC_OPENEYE_NAME>
4-(6,7-dimethoxyquinazolin-4-yl)-N-(4-nitrophenyl)piperazine-1-carboxamide

> <PUBCHEM_IUPAC_CAS_NAME>
4-(6,7-dimethoxy-4-quinazolinyl)-N-(4-nitrophenyl)-1-piperazinecarboxamide

> <PUBCHEM_IUPAC_NAME_MARKUP>
4-(6,7-dimethoxyquinazolin-4-yl)-<I>N</I>-(4-nitrophenyl)piperazine-1-carboxamide

> <PUBCHEM_IUPAC_NAME>
4-(6,7-dimethoxyquinazolin-4-yl)-N-(4-nitrophenyl)piperazine-1-carboxamide

> <PUBCHEM_IUPAC_SYSTEMATIC_NAME>
4-(6,7-dimethoxyquinazolin-4-yl)-N-(4-nitrophenyl)piperazine-1-carboxamide

> <PUBCHEM_IUPAC_TRADITIONAL_NAME>
4-(6,7-dimethoxyquinazolin-4-yl)-N-(4-nitrophenyl)piperazine-1-carboxamide

> <PUBCHEM_IUPAC_INCHI>
InChI=1S/C21H22N6O5/c1-31-18-11-16-17(12-19(18)32-2)22-13-23-20(16)25-7-9-26(10-8-25)21(28)24-14-3-5-15(6-4-14)27(29)30/h3-6,11-13H,7-10H2,1-2H3,(H,24,28)

> <PUBCHEM_IUPAC_INCHIKEY>
ZIFCMJKHIXABHJ-UHFFFAOYSA-N

> <PUBCHEM_XLOGP3_AA>
2.4

> <PUBCHEM_EXACT_MASS>
438.16516782

> <PUBCHEM_MOLECULAR_FORMULA>
C21H22N6O5

> <PUBCHEM_MOLECULAR_WEIGHT>
438.4

> <PUBCHEM_SMILES>
COC1=C(C=C2C(=C1)C(=NC=N2)N3CCN(CC3)C(=O)NC4=CC=C(C=C4)[N+](=O)[O-])OC

> <PUBCHEM_OPENEYE_CAN_SMILES>
COC1=C(C=C2C(=C1)C(=NC=N2)N3CCN(CC3)C(=O)NC4=CC=C(C=C4)[N+](=O)[O-])OC

> <PUBCHEM_OPENEYE_ISO_SMILES>
COC1=C(C=C2C(=C1)C(=NC=N2)N3CCN(CC3)C(=O)NC4=CC=C(C=C4)[N+](=O)[O-])OC

> <PUBCHEM_CACTVS_TPSA>
126

> <PUBCHEM_MONOISOTOPIC_WEIGHT>
438.16516782

> <PUBCHEM_TOTAL_CHARGE>
0

> <PUBCHEM_HEAVY_ATOM_COUNT>
32

> <PUBCHEM_ATOM_DEF_STEREO_COUNT>
0

> <PUBCHEM_ATOM_UDEF_STEREO_COUNT>
0

> <PUBCHEM_BOND_DEF_STEREO_COUNT>
0

> <PUBCHEM_BOND_UDEF_STEREO_COUNT>
0

> <PUBCHEM_ISOTOPIC_ATOM_COUNT>
0

> <PUBCHEM_COMPONENT_COUNT>
1

> <PUBCHEM_CACTVS_TAUTO_COUNT>
-1

> <PUBCHEM_COORDINATE_TYPE>
1
5
255

> <PUBCHEM_BONDANNOTATIONS>
10  19  8
10  23  8
16  18  8
18  19  8
18  20  8
19  21  8
20  22  8
21  24  8
22  24  8
25  26  8
25  27  8
26  28  8
27  29  8
28  30  8
29  30  8
8  16  8
8  23  8

$$$$
