9983303
  -OEChem-03202506392D

 69 74  0     0  0  0  0  0  0999 V2000
   11.6065   -1.6775    0.0000 O   0  0  0  0  0  0  0  0  0  0  0  0
    2.8660    3.1272    0.0000 O   0  0  0  0  0  0  0  0  0  0  0  0
    5.4641   -0.3728    0.0000 O   0  0  0  0  0  0  0  0  0  0  0  0
   12.5385    2.7835    0.0000 N   0  0  0  0  0  0  0  0  0  0  0  0
   12.1901   -0.8728    0.0000 N   0  0  0  0  0  0  0  0  0  0  0  0
    2.8660    1.1272    0.0000 N   0  0  0  0  0  0  0  0  0  0  0  0
    4.5981   -1.8728    0.0000 N   0  0  0  0  0  0  0  0  0  0  0  0
   11.9171    0.8824    0.0000 C   0  0  0  0  0  0  0  0  0  0  0  0
   11.2493    1.6268    0.0000 C   0  0  0  0  0  0  0  0  0  0  0  0
   12.8956    1.0887    0.0000 C   0  0  0  0  0  0  0  0  0  0  0  0
   11.5600    2.5773    0.0000 C   0  0  0  0  0  0  0  0  0  0  0  0
   13.2063    2.0392    0.0000 C   0  0  0  0  0  0  0  0  0  0  0  0
   11.6065   -0.0681    0.0000 C   0  0  0  0  0  0  0  0  0  0  0  0
   10.6603   -0.3728    0.0000 C   0  0  0  0  0  0  0  0  0  0  0  0
   10.6603   -1.3728    0.0000 C   0  0  0  0  0  0  0  0  0  0  0  0
    9.7942    0.1272    0.0000 C   0  0  0  0  0  0  0  0  0  0  0  0
    9.7942   -1.8728    0.0000 C   0  0  0  0  0  0  0  0  0  0  0  0
    8.9282   -1.3728    0.0000 C   0  0  0  0  0  0  0  0  0  0  0  0
    8.9282   -0.3728    0.0000 C   0  0  0  0  0  0  0  0  0  0  0  0
    2.0000    1.6272    0.0000 C   0  0  0  0  0  0  0  0  0  0  0  0
    3.7320    1.6272    0.0000 C   0  0  0  0  0  0  0  0  0  0  0  0
    8.0622   -1.8728    0.0000 C   0  0  0  0  0  0  0  0  0  0  0  0
    2.0000    2.6272    0.0000 C   0  0  0  0  0  0  0  0  0  0  0  0
    3.7320    2.6272    0.0000 C   0  0  0  0  0  0  0  0  0  0  0  0
    2.8660    0.1272    0.0000 C   0  0  0  0  0  0  0  0  0  0  0  0
    8.0622   -2.8728    0.0000 C   0  0  0  0  0  0  0  0  0  0  0  0
    7.1962   -1.3728    0.0000 C   0  0  0  0  0  0  0  0  0  0  0  0
    3.7320   -0.3728    0.0000 C   0  0  0  0  0  0  0  0  0  0  0  0
    6.3301   -1.8728    0.0000 C   0  0  0  0  0  0  0  0  0  0  0  0
    2.0000   -0.3728    0.0000 C   0  0  0  0  0  0  0  0  0  0  0  0
    3.7320   -1.3728    0.0000 C   0  0  0  0  0  0  0  0  0  0  0  0
    7.1962   -3.3728    0.0000 C   0  0  0  0  0  0  0  0  0  0  0  0
    6.3301   -2.8728    0.0000 C   0  0  0  0  0  0  0  0  0  0  0  0
    8.9282   -3.3728    0.0000 C   0  0  0  0  0  0  0  0  0  0  0  0
    5.4641   -1.3728    0.0000 C   0  0  0  0  0  0  0  0  0  0  0  0
    2.0000   -1.3728    0.0000 C   0  0  0  0  0  0  0  0  0  0  0  0
    2.8660   -1.8728    0.0000 C   0  0  0  0  0  0  0  0  0  0  0  0
   11.3105    0.7546    0.0000 H   0  0  0  0  0  0  0  0  0  0  0  0
   10.7024    1.9188    0.0000 H   0  0  0  0  0  0  0  0  0  0  0  0
   10.8667    1.1388    0.0000 H   0  0  0  0  0  0  0  0  0  0  0  0
   12.9162    0.4690    0.0000 H   0  0  0  0  0  0  0  0  0  0  0  0
   13.5095    1.0013    0.0000 H   0  0  0  0  0  0  0  0  0  0  0  0
   11.5394    3.1969    0.0000 H   0  0  0  0  0  0  0  0  0  0  0  0
   10.9461    2.6646    0.0000 H   0  0  0  0  0  0  0  0  0  0  0  0
   13.7532    1.7472    0.0000 H   0  0  0  0  0  0  0  0  0  0  0  0
   13.5889    2.5271    0.0000 H   0  0  0  0  0  0  0  0  0  0  0  0
   12.7311    3.3728    0.0000 H   0  0  0  0  0  0  0  0  0  0  0  0
    9.7942    0.7472    0.0000 H   0  0  0  0  0  0  0  0  0  0  0  0
    9.7942   -2.4928    0.0000 H   0  0  0  0  0  0  0  0  0  0  0  0
    8.3913   -0.0628    0.0000 H   0  0  0  0  0  0  0  0  0  0  0  0
    1.3894    1.7348    0.0000 H   0  0  0  0  0  0  0  0  0  0  0  0
    1.7880    1.0446    0.0000 H   0  0  0  0  0  0  0  0  0  0  0  0
    3.9441    1.0446    0.0000 H   0  0  0  0  0  0  0  0  0  0  0  0
    4.3426    1.7348    0.0000 H   0  0  0  0  0  0  0  0  0  0  0  0
    1.7880    3.2098    0.0000 H   0  0  0  0  0  0  0  0  0  0  0  0
    1.3894    2.5195    0.0000 H   0  0  0  0  0  0  0  0  0  0  0  0
    4.3426    2.5195    0.0000 H   0  0  0  0  0  0  0  0  0  0  0  0
    3.9441    3.2098    0.0000 H   0  0  0  0  0  0  0  0  0  0  0  0
    7.1962   -0.7528    0.0000 H   0  0  0  0  0  0  0  0  0  0  0  0
    4.2690   -0.0628    0.0000 H   0  0  0  0  0  0  0  0  0  0  0  0
    1.4631   -0.0628    0.0000 H   0  0  0  0  0  0  0  0  0  0  0  0
    7.1962   -3.9928    0.0000 H   0  0  0  0  0  0  0  0  0  0  0  0
    5.7932   -3.1828    0.0000 H   0  0  0  0  0  0  0  0  0  0  0  0
    8.6182   -3.9097    0.0000 H   0  0  0  0  0  0  0  0  0  0  0  0
    9.4651   -3.6828    0.0000 H   0  0  0  0  0  0  0  0  0  0  0  0
    9.2382   -2.8359    0.0000 H   0  0  0  0  0  0  0  0  0  0  0  0
    4.5981   -2.4928    0.0000 H   0  0  0  0  0  0  0  0  0  0  0  0
    1.4631   -1.6828    0.0000 H   0  0  0  0  0  0  0  0  0  0  0  0
    2.8660   -2.4928    0.0000 H   0  0  0  0  0  0  0  0  0  0  0  0
  1  5  1  0  0  0  0
  1 15  1  0  0  0  0
  2 23  1  0  0  0  0
  2 24  1  0  0  0  0
  3 35  2  0  0  0  0
  4 11  1  0  0  0  0
  4 12  1  0  0  0  0
  4 47  1  0  0  0  0
  5 13  2  0  0  0  0
  6 20  1  0  0  0  0
  6 21  1  0  0  0  0
  6 25  1  0  0  0  0
  7 31  1  0  0  0  0
  7 35  1  0  0  0  0
  7 67  1  0  0  0  0
  8  9  1  0  0  0  0
  8 10  1  0  0  0  0
  8 13  1  0  0  0  0
  8 38  1  0  0  0  0
  9 11  1  0  0  0  0
  9 39  1  0  0  0  0
  9 40  1  0  0  0  0
 10 12  1  0  0  0  0
 10 41  1  0  0  0  0
 10 42  1  0  0  0  0
 11 43  1  0  0  0  0
 11 44  1  0  0  0  0
 12 45  1  0  0  0  0
 12 46  1  0  0  0  0
 13 14  1  0  0  0  0
 14 15  2  0  0  0  0
 14 16  1  0  0  0  0
 15 17  1  0  0  0  0
 16 19  2  0  0  0  0
 16 48  1  0  0  0  0
 17 18  2  0  0  0  0
 17 49  1  0  0  0  0
 18 19  1  0  0  0  0
 18 22  1  0  0  0  0
 19 50  1  0  0  0  0
 20 23  1  0  0  0  0
 20 51  1  0  0  0  0
 20 52  1  0  0  0  0
 21 24  1  0  0  0  0
 21 53  1  0  0  0  0
 21 54  1  0  0  0  0
 22 26  2  0  0  0  0
 22 27  1  0  0  0  0
 23 55  1  0  0  0  0
 23 56  1  0  0  0  0
 24 57  1  0  0  0  0
 24 58  1  0  0  0  0
 25 28  1  0  0  0  0
 25 30  2  0  0  0  0
 26 32  1  0  0  0  0
 26 34  1  0  0  0  0
 27 29  2  0  0  0  0
 27 59  1  0  0  0  0
 28 31  2  0  0  0  0
 28 60  1  0  0  0  0
 29 33  1  0  0  0  0
 29 35  1  0  0  0  0
 30 36  1  0  0  0  0
 30 61  1  0  0  0  0
 31 37  1  0  0  0  0
 32 33  2  0  0  0  0
 32 62  1  0  0  0  0
 33 63  1  0  0  0  0
 34 64  1  0  0  0  0
 34 65  1  0  0  0  0
 34 66  1  0  0  0  0
 36 37  2  0  0  0  0
 36 68  1  0  0  0  0
 37 69  1  0  0  0  0
M  END
> <PUBCHEM_COMPOUND_CID>
9983303

> <PUBCHEM_COMPOUND_CANONICALIZED>
1

> <PUBCHEM_CACTVS_COMPLEXITY>
755

> <PUBCHEM_CACTVS_HBOND_ACCEPTOR>
6

> <PUBCHEM_CACTVS_HBOND_DONOR>
2

> <PUBCHEM_CACTVS_ROTATABLE_BOND>
5

> <PUBCHEM_CACTVS_SUBSKEYS>
AAADcfB7sAAAAAAAAAAAAAAAAAAAAWAAAAA8eMECAAAAAFgB9AAAHgAUAAAADQzhngYyxtPQBACpA6VyUgCCAAAlIgAomKE+bNoKJrrA1dOHMYhm1BnYyceYyPCOwAADAAQYAACAAAYACDAAAAAAAAAAAA==

> <PUBCHEM_IUPAC_OPENEYE_NAME>
4-methyl-N-(3-morpholinophenyl)-3-[3-(4-piperidyl)-1,2-benzoxazol-6-yl]benzamide

> <PUBCHEM_IUPAC_CAS_NAME>
4-methyl-N-[3-(4-morpholinyl)phenyl]-3-[3-(4-piperidinyl)-1,2-benzoxazol-6-yl]benzamide

> <PUBCHEM_IUPAC_NAME_MARKUP>
4-methyl-<I>N</I>-(3-morpholin-4-ylphenyl)-3-(3-piperidin-4-yl-1,2-benzoxazol-6-yl)benzamide

> <PUBCHEM_IUPAC_NAME>
4-methyl-N-(3-morpholin-4-ylphenyl)-3-(3-piperidin-4-yl-1,2-benzoxazol-6-yl)benzamide

> <PUBCHEM_IUPAC_SYSTEMATIC_NAME>
4-methyl-N-(3-morpholin-4-ylphenyl)-3-(3-piperidin-4-yl-1,2-benzoxazol-6-yl)benzamide

> <PUBCHEM_IUPAC_TRADITIONAL_NAME>
4-methyl-N-(3-morpholinophenyl)-3-[3-(4-piperidyl)indoxazen-6-yl]benzamide

> <PUBCHEM_IUPAC_INCHI>
InChI=1S/C30H32N4O3/c1-20-5-6-23(30(35)32-24-3-2-4-25(19-24)34-13-15-36-16-14-34)17-27(20)22-7-8-26-28(18-22)37-33-29(26)21-9-11-31-12-10-21/h2-8,17-19,21,31H,9-16H2,1H3,(H,32,35)

> <PUBCHEM_IUPAC_INCHIKEY>
UVUGBBNUQBSROH-UHFFFAOYSA-N

> <PUBCHEM_XLOGP3_AA>
4.4

> <PUBCHEM_EXACT_MASS>
496.24744090

> <PUBCHEM_MOLECULAR_FORMULA>
C30H32N4O3

> <PUBCHEM_MOLECULAR_WEIGHT>
496.6

> <PUBCHEM_SMILES>
CC1=C(C=C(C=C1)C(=O)NC2=CC(=CC=C2)N3CCOCC3)C4=CC5=C(C=C4)C(=NO5)C6CCNCC6

> <PUBCHEM_OPENEYE_CAN_SMILES>
CC1=C(C=C(C=C1)C(=O)NC2=CC(=CC=C2)N3CCOCC3)C4=CC5=C(C=C4)C(=NO5)C6CCNCC6

> <PUBCHEM_OPENEYE_ISO_SMILES>
CC1=C(C=C(C=C1)C(=O)NC2=CC(=CC=C2)N3CCOCC3)C4=CC5=C(C=C4)C(=NO5)C6CCNCC6

> <PUBCHEM_CACTVS_TPSA>
79.6

> <PUBCHEM_MONOISOTOPIC_WEIGHT>
496.24744090

> <PUBCHEM_TOTAL_CHARGE>
0

> <PUBCHEM_HEAVY_ATOM_COUNT>
37

> <PUBCHEM_ATOM_DEF_STEREO_COUNT>
0

> <PUBCHEM_ATOM_UDEF_STEREO_COUNT>
0

> <PUBCHEM_BOND_DEF_STEREO_COUNT>
0

> <PUBCHEM_BOND_UDEF_STEREO_COUNT>
0

> <PUBCHEM_ISOTOPIC_ATOM_COUNT>
0

> <PUBCHEM_COMPONENT_COUNT>
1

> <PUBCHEM_CACTVS_TAUTO_COUNT>
-1

> <PUBCHEM_COORDINATE_TYPE>
1
5
255

> <PUBCHEM_BONDANNOTATIONS>
1  15  8
1  5  8
13  14  8
14  15  8
14  16  8
15  17  8
16  19  8
17  18  8
18  19  8
22  26  8
22  27  8
25  28  8
25  30  8
26  32  8
27  29  8
28  31  8
29  33  8
30  36  8
31  37  8
32  33  8
36  37  8
5  13  8

$$$$
