44340930
  -OEChem-03202505292D

 72 78  0     1  0  0  0  0  0999 V2000
    5.0389   -0.5417    0.0000 O   0  0  0  0  0  0  0  0  0  0  0  0
    4.4755   -3.2151    0.0000 O   0  0  0  0  0  0  0  0  0  0  0  0
    3.0354   -2.7746    0.0000 O   0  0  0  0  0  0  0  0  0  0  0  0
    2.4141   -0.8736    0.0000 O   0  0  0  0  0  0  0  0  0  0  0  0
    2.7712    0.8212    0.0000 O   0  0  0  0  0  0  0  0  0  0  0  0
    5.4804   -4.1228    0.0000 O   0  0  0  0  0  0  0  0  0  0  0  0
   10.0540   -2.2866    0.0000 O   0  0  0  0  0  0  0  0  0  0  0  0
   10.0540    1.2239    0.0000 O   0  0  0  0  0  0  0  0  0  0  0  0
    6.4871    4.2370    0.0000 O   0  0  0  0  0  0  0  0  0  0  0  0
   13.3270    1.2006    0.0000 O   0  0  0  0  0  0  0  0  0  0  0  0
   11.8270    2.0667    0.0000 O   0  0  0  0  0  0  0  0  0  0  0  0
    6.3281   -1.6985    0.0000 N   0  0  0  0  0  0  0  0  0  0  0  0
    6.3281    0.6357    0.0000 N   0  0  0  0  0  0  0  0  0  0  0  0
   10.3270   -0.5314    0.0000 N   0  0  0  0  0  0  0  0  0  0  0  0
   11.3270   -0.5314    0.0000 N   0  0  0  0  0  0  0  0  0  0  0  0
    5.3496   -1.4923    0.0000 C   0  0  3  0  0  0  0  0  0  0  0  0
    4.6817   -2.2366    0.0000 C   0  0  3  0  0  0  0  0  0  0  0  0
    7.0651   -1.0314    0.0000 C   0  0  0  0  0  0  0  0  0  0  0  0
    3.7032   -2.0303    0.0000 C   0  0  3  0  0  0  0  0  0  0  0  0
    3.3926   -1.0798    0.0000 C   0  0  3  0  0  0  0  0  0  0  0  0
    7.9311   -1.5314    0.0000 C   0  0  0  0  0  0  0  0  0  0  0  0
    4.0604   -0.3355    0.0000 C   0  0  3  0  0  0  0  0  0  0  0  0
    6.7332   -2.6063    0.0000 C   0  0  0  0  0  0  0  0  0  0  0  0
    7.0651   -0.0314    0.0000 C   0  0  0  0  0  0  0  0  0  0  0  0
    7.7219   -2.5032    0.0000 C   0  0  0  0  0  0  0  0  0  0  0  0
    8.7972   -1.0314    0.0000 C   0  0  0  0  0  0  0  0  0  0  0  0
    7.9311    0.4686    0.0000 C   0  0  0  0  0  0  0  0  0  0  0  0
    8.7972   -0.0314    0.0000 C   0  0  0  0  0  0  0  0  0  0  0  0
    7.7219    1.4404    0.0000 C   0  0  0  0  0  0  0  0  0  0  0  0
    3.7498    0.6150    0.0000 C   0  0  0  0  0  0  0  0  0  0  0  0
    6.2967   -3.5452    0.0000 C   0  0  0  0  0  0  0  0  0  0  0  0
    6.7332    1.5435    0.0000 C   0  0  0  0  0  0  0  0  0  0  0  0
    9.7434   -1.3361    0.0000 C   0  0  0  0  0  0  0  0  0  0  0  0
    9.7434    0.2733    0.0000 C   0  0  0  0  0  0  0  0  0  0  0  0
    8.3427   -3.3320    0.0000 C   0  0  0  0  0  0  0  0  0  0  0  0
    6.8981   -4.3881    0.0000 C   0  0  0  0  0  0  0  0  0  0  0  0
    7.9280   -4.2808    0.0000 C   0  0  0  0  0  0  0  0  0  0  0  0
    8.3427    2.2692    0.0000 C   0  0  0  0  0  0  0  0  0  0  0  0
    6.2967    2.4824    0.0000 C   0  0  0  0  0  0  0  0  0  0  0  0
   11.8270    0.3346    0.0000 C   0  0  0  0  0  0  0  0  0  0  0  0
    7.9280    3.2180    0.0000 C   0  0  0  0  0  0  0  0  0  0  0  0
    6.8981    3.3253    0.0000 C   0  0  0  0  0  0  0  0  0  0  0  0
   12.8270    0.3346    0.0000 C   0  0  0  0  0  0  0  0  0  0  0  0
   11.3270    1.2006    0.0000 C   0  0  0  0  0  0  0  0  0  0  0  0
    5.7636   -1.0308    0.0000 H   0  0  0  0  0  0  0  0  0  0  0  0
    5.2346   -2.5171    0.0000 H   0  0  0  0  0  0  0  0  0  0  0  0
    3.8958   -2.6197    0.0000 H   0  0  0  0  0  0  0  0  0  0  0  0
    2.9785   -1.5413    0.0000 H   0  0  0  0  0  0  0  0  0  0  0  0
    4.4745    0.1259    0.0000 H   0  0  0  0  0  0  0  0  0  0  0  0
    4.3636    0.7023    0.0000 H   0  0  0  0  0  0  0  0  0  0  0  0
    3.7703    1.2347    0.0000 H   0  0  0  0  0  0  0  0  0  0  0  0
    5.7214    0.5078    0.0000 H   0  0  0  0  0  0  0  0  0  0  0  0
    8.9586   -3.2606    0.0000 H   0  0  0  0  0  0  0  0  0  0  0  0
    3.8863   -3.4077    0.0000 H   0  0  0  0  0  0  0  0  0  0  0  0
    2.4287   -2.6468    0.0000 H   0  0  0  0  0  0  0  0  0  0  0  0
    2.0000   -1.3351    0.0000 H   0  0  0  0  0  0  0  0  0  0  0  0
    6.6433   -4.9533    0.0000 H   0  0  0  0  0  0  0  0  0  0  0  0
    8.2939   -4.7813    0.0000 H   0  0  0  0  0  0  0  0  0  0  0  0
    8.9586    2.1978    0.0000 H   0  0  0  0  0  0  0  0  0  0  0  0
    5.6793    2.5396    0.0000 H   0  0  0  0  0  0  0  0  0  0  0  0
   11.6370   -1.0683    0.0000 H   0  0  0  0  0  0  0  0  0  0  0  0
   11.2070    0.3346    0.0000 H   0  0  0  0  0  0  0  0  0  0  0  0
    2.5786    1.4105    0.0000 H   0  0  0  0  0  0  0  0  0  0  0  0
    8.2939    3.7185    0.0000 H   0  0  0  0  0  0  0  0  0  0  0  0
    5.5375   -4.7402    0.0000 H   0  0  0  0  0  0  0  0  0  0  0  0
   12.7193   -0.2760    0.0000 H   0  0  0  0  0  0  0  0  0  0  0  0
   13.4096    0.1226    0.0000 H   0  0  0  0  0  0  0  0  0  0  0  0
   10.8520    1.5992    0.0000 H   0  0  0  0  0  0  0  0  0  0  0  0
   10.8520    0.8021    0.0000 H   0  0  0  0  0  0  0  0  0  0  0  0
    6.8491    4.7402    0.0000 H   0  0  0  0  0  0  0  0  0  0  0  0
   13.9470    1.2006    0.0000 H   0  0  0  0  0  0  0  0  0  0  0  0
   11.5170    2.6036    0.0000 H   0  0  0  0  0  0  0  0  0  0  0  0
  1 16  1  0  0  0  0
  1 22  1  0  0  0  0
  2 17  1  0  0  0  0
  2 54  1  0  0  0  0
  3 19  1  0  0  0  0
  3 55  1  0  0  0  0
  4 20  1  0  0  0  0
  4 56  1  0  0  0  0
  5 30  1  0  0  0  0
  5 63  1  0  0  0  0
  6 31  1  0  0  0  0
  6 65  1  0  0  0  0
  7 33  2  0  0  0  0
  8 34  2  0  0  0  0
  9 42  1  0  0  0  0
  9 70  1  0  0  0  0
 10 43  1  0  0  0  0
 10 71  1  0  0  0  0
 11 44  1  0  0  0  0
 11 72  1  0  0  0  0
 12 16  1  0  0  0  0
 12 18  1  0  0  0  0
 12 23  1  0  0  0  0
 13 24  1  0  0  0  0
 13 32  1  0  0  0  0
 13 52  1  0  0  0  0
 14 15  1  0  0  0  0
 14 33  1  0  0  0  0
 14 34  1  0  0  0  0
 15 40  1  0  0  0  0
 15 61  1  0  0  0  0
 16 17  1  0  0  0  0
 16 45  1  0  0  0  0
 17 19  1  0  0  0  0
 17 46  1  0  0  0  0
 18 21  1  0  0  0  0
 18 24  2  0  0  0  0
 19 20  1  0  0  0  0
 19 47  1  0  0  0  0
 20 22  1  0  0  0  0
 20 48  1  0  0  0  0
 21 25  1  0  0  0  0
 21 26  2  0  0  0  0
 22 30  1  0  0  0  0
 22 49  1  0  0  0  0
 23 25  2  0  0  0  0
 23 31  1  0  0  0  0
 24 27  1  0  0  0  0
 25 35  1  0  0  0  0
 26 28  1  0  0  0  0
 26 33  1  0  0  0  0
 27 28  2  0  0  0  0
 27 29  1  0  0  0  0
 28 34  1  0  0  0  0
 29 32  2  0  0  0  0
 29 38  1  0  0  0  0
 30 50  1  0  0  0  0
 30 51  1  0  0  0  0
 31 36  2  0  0  0  0
 32 39  1  0  0  0  0
 35 37  2  0  0  0  0
 35 53  1  0  0  0  0
 36 37  1  0  0  0  0
 36 57  1  0  0  0  0
 37 58  1  0  0  0  0
 38 41  2  0  0  0  0
 38 59  1  0  0  0  0
 39 42  2  0  0  0  0
 39 60  1  0  0  0  0
 40 43  1  0  0  0  0
 40 44  1  0  0  0  0
 40 62  1  0  0  0  0
 41 42  1  0  0  0  0
 41 64  1  0  0  0  0
 43 66  1  0  0  0  0
 43 67  1  0  0  0  0
 44 68  1  0  0  0  0
 44 69  1  0  0  0  0
M  END
> <PUBCHEM_COMPOUND_CID>
44340930

> <PUBCHEM_COMPOUND_CANONICALIZED>
1

> <PUBCHEM_CACTVS_COMPLEXITY>
1120

> <PUBCHEM_CACTVS_HBOND_ACCEPTOR>
12

> <PUBCHEM_CACTVS_HBOND_DONOR>
10

> <PUBCHEM_CACTVS_ROTATABLE_BOND>
6

> <PUBCHEM_CACTVS_SUBSKEYS>
AAADceB7vAAAAAAAAAAAAAAAAAAAAWLFgAA0YMEAAAAAAFgB/gAAHgAYCAAADDzhngYwxvPvlgCoAyVyVASCgCQlciAa+aE/fNgLdvLSlZOecQhn1Dnb2Qf9+fee6AADQgASECDQAAaEACQgQAAAAAAAAA==

> <PUBCHEM_IUPAC_OPENEYE_NAME>
5,20-dihydroxy-13-[[2-hydroxy-1-(hydroxymethyl)ethyl]amino]-3-[3,4,5-trihydroxy-6-(hydroxymethyl)tetrahydropyran-2-yl]-3,13,23-triazahexacyclo[14.7.0.02,10.04,9.011,15.017,22]tricosa-1,4(9),5,7,10,15,17(22),18,20-nonaene-12,14-dione

> <PUBCHEM_IUPAC_CAS_NAME>
13-(1,3-dihydroxypropan-2-ylamino)-5,20-dihydroxy-3-[3,4,5-trihydroxy-6-(hydroxymethyl)-2-oxanyl]-3,13,23-triazahexacyclo[14.7.0.02,10.04,9.011,15.017,22]tricosa-1,4(9),5,7,10,15,17(22),18,20-nonaene-12,14-dione

> <PUBCHEM_IUPAC_NAME_MARKUP>
13-(1,3-dihydroxypropan-2-ylamino)-5,20-dihydroxy-3-[3,4,5-trihydroxy-6-(hydroxymethyl)oxan-2-yl]-3,13,23-triazahexacyclo[14.7.0.0<SUP>2,10</SUP>.0<SUP>4,9</SUP>.0<SUP>11,15</SUP>.0<SUP>17,22</SUP>]tricosa-1,4(9),5,7,10,15,17(22),18,20-nonaene-12,14-dione

> <PUBCHEM_IUPAC_NAME>
13-(1,3-dihydroxypropan-2-ylamino)-5,20-dihydroxy-3-[3,4,5-trihydroxy-6-(hydroxymethyl)oxan-2-yl]-3,13,23-triazahexacyclo[14.7.0.02,10.04,9.011,15.017,22]tricosa-1,4(9),5,7,10,15,17(22),18,20-nonaene-12,14-dione

> <PUBCHEM_IUPAC_SYSTEMATIC_NAME>
13-[1,3-bis(oxidanyl)propan-2-ylamino]-3-[6-(hydroxymethyl)-3,4,5-tris(oxidanyl)oxan-2-yl]-5,20-bis(oxidanyl)-3,13,23-triazahexacyclo[14.7.0.02,10.04,9.011,15.017,22]tricosa-1,4(9),5,7,10,15,17(22),18,20-nonaene-12,14-dione

> <PUBCHEM_IUPAC_TRADITIONAL_NAME>
5,20-dihydroxy-13-[(2-hydroxy-1-methylol-ethyl)amino]-3-(3,4,5-trihydroxy-6-methylol-tetrahydropyran-2-yl)-3,13,23-triazahexacyclo[14.7.0.02,10.04,9.011,15.017,22]tricosa-1,4(9),5,7,10,15,17(22),18,20-nonaene-12,14-quinone

> <PUBCHEM_IUPAC_INCHI>
InChI=1S/C29H28N4O11/c34-7-10(8-35)31-33-27(42)19-17-12-5-4-11(37)6-14(12)30-21(17)23-18(20(19)28(33)43)13-2-1-3-15(38)22(13)32(23)29-26(41)25(40)24(39)16(9-36)44-29/h1-6,10,16,24-26,29-31,34-41H,7-9H2

> <PUBCHEM_IUPAC_INCHIKEY>
IVUMTXDNGYOSOW-UHFFFAOYSA-N

> <PUBCHEM_XLOGP3_AA>
-0.7

> <PUBCHEM_EXACT_MASS>
608.17545772

> <PUBCHEM_MOLECULAR_FORMULA>
C29H28N4O11

> <PUBCHEM_MOLECULAR_WEIGHT>
608.6

> <PUBCHEM_SMILES>
C1=CC2=C(C(=C1)O)N(C3=C4C(=C5C(=C23)C(=O)N(C5=O)NC(CO)CO)C6=C(N4)C=C(C=C6)O)C7C(C(C(C(O7)CO)O)O)O

> <PUBCHEM_OPENEYE_CAN_SMILES>
C1=CC2=C(C(=C1)O)N(C3=C4C(=C5C(=C23)C(=O)N(C5=O)NC(CO)CO)C6=C(N4)C=C(C=C6)O)C7C(C(C(C(O7)CO)O)O)O

> <PUBCHEM_OPENEYE_ISO_SMILES>
C1=CC2=C(C(=C1)O)N(C3=C4C(=C5C(=C23)C(=O)N(C5=O)NC(CO)CO)C6=C(N4)C=C(C=C6)O)C7C(C(C(C(O7)CO)O)O)O

> <PUBCHEM_CACTVS_TPSA>
241

> <PUBCHEM_MONOISOTOPIC_WEIGHT>
608.17545772

> <PUBCHEM_TOTAL_CHARGE>
0

> <PUBCHEM_HEAVY_ATOM_COUNT>
44

> <PUBCHEM_ATOM_DEF_STEREO_COUNT>
0

> <PUBCHEM_ATOM_UDEF_STEREO_COUNT>
5

> <PUBCHEM_BOND_DEF_STEREO_COUNT>
0

> <PUBCHEM_BOND_UDEF_STEREO_COUNT>
0

> <PUBCHEM_ISOTOPIC_ATOM_COUNT>
0

> <PUBCHEM_COMPONENT_COUNT>
1

> <PUBCHEM_CACTVS_TAUTO_COUNT>
-1

> <PUBCHEM_COORDINATE_TYPE>
1
5
255

> <PUBCHEM_BONDANNOTATIONS>
16  12  3
12  18  8
12  23  8
13  24  8
13  32  8
18  21  8
18  24  8
17  2  3
21  25  8
21  26  8
22  30  3
23  25  8
23  31  8
24  27  8
25  35  8
26  28  8
27  28  8
27  29  8
29  32  8
29  38  8
19  3  3
31  36  8
32  39  8
35  37  8
36  37  8
38  41  8
39  42  8
20  4  3
41  42  8

$$$$
