9888491
  -OEChem-03202505292D

 57 60  0     0  0  0  0  0  0999 V2000
    2.8660   -5.0600    0.0000 O   0  0  0  0  0  0  0  0  0  0  0  0
    6.3301   -5.0600    0.0000 O   0  0  0  0  0  0  0  0  0  0  0  0
    4.5981   -6.0600    0.0000 O   0  0  0  0  0  0  0  0  0  0  0  0
    6.3301    3.9400    0.0000 N   0  0  0  0  0  0  0  0  0  0  0  0
    6.3301    5.9400    0.0000 N   0  0  0  0  0  0  0  0  0  0  0  0
    7.1962    2.4400    0.0000 N   0  0  0  0  0  0  0  0  0  0  0  0
    5.4641   -0.5600    0.0000 N   0  0  0  0  0  0  0  0  0  0  0  0
    4.5981   -2.0600    0.0000 N   0  0  0  0  0  0  0  0  0  0  0  0
    6.3301   -2.0600    0.0000 N   0  0  0  0  0  0  0  0  0  0  0  0
    7.1962    4.4400    0.0000 C   0  0  0  0  0  0  0  0  0  0  0  0
    5.4641    4.4400    0.0000 C   0  0  0  0  0  0  0  0  0  0  0  0
    7.1962    5.4400    0.0000 C   0  0  0  0  0  0  0  0  0  0  0  0
    5.4641    5.4400    0.0000 C   0  0  0  0  0  0  0  0  0  0  0  0
    6.3301    2.9400    0.0000 C   0  0  0  0  0  0  0  0  0  0  0  0
    5.4641    2.4400    0.0000 C   0  0  0  0  0  0  0  0  0  0  0  0
    5.4641    1.4400    0.0000 C   0  0  0  0  0  0  0  0  0  0  0  0
    6.3301    0.9400    0.0000 C   0  0  0  0  0  0  0  0  0  0  0  0
    7.1962    1.4400    0.0000 C   0  0  0  0  0  0  0  0  0  0  0  0
    6.3301   -0.0600    0.0000 C   0  0  0  0  0  0  0  0  0  0  0  0
    7.1962   -0.5600    0.0000 C   0  0  0  0  0  0  0  0  0  0  0  0
    4.5981   -3.0600    0.0000 C   0  0  0  0  0  0  0  0  0  0  0  0
    5.4641   -1.5600    0.0000 C   0  0  0  0  0  0  0  0  0  0  0  0
    5.4641   -3.5600    0.0000 C   0  0  0  0  0  0  0  0  0  0  0  0
    3.7320   -3.5600    0.0000 C   0  0  0  0  0  0  0  0  0  0  0  0
    3.7320   -4.5600    0.0000 C   0  0  0  0  0  0  0  0  0  0  0  0
    5.4641   -4.5600    0.0000 C   0  0  0  0  0  0  0  0  0  0  0  0
    4.5981   -5.0600    0.0000 C   0  0  0  0  0  0  0  0  0  0  0  0
    7.1962   -1.5600    0.0000 C   0  0  0  0  0  0  0  0  0  0  0  0
    2.0000   -4.5600    0.0000 C   0  0  0  0  0  0  0  0  0  0  0  0
    6.3301   -6.0600    0.0000 C   0  0  0  0  0  0  0  0  0  0  0  0
    3.7320   -6.5600    0.0000 C   0  0  0  0  0  0  0  0  0  0  0  0
    7.4082    3.8574    0.0000 H   0  0  0  0  0  0  0  0  0  0  0  0
    7.8067    4.5477    0.0000 H   0  0  0  0  0  0  0  0  0  0  0  0
    4.8535    4.5477    0.0000 H   0  0  0  0  0  0  0  0  0  0  0  0
    5.2520    3.8574    0.0000 H   0  0  0  0  0  0  0  0  0  0  0  0
    7.8067    5.3323    0.0000 H   0  0  0  0  0  0  0  0  0  0  0  0
    7.4082    6.0226    0.0000 H   0  0  0  0  0  0  0  0  0  0  0  0
    5.2520    6.0226    0.0000 H   0  0  0  0  0  0  0  0  0  0  0  0
    4.8535    5.3323    0.0000 H   0  0  0  0  0  0  0  0  0  0  0  0
    6.3301    6.5600    0.0000 H   0  0  0  0  0  0  0  0  0  0  0  0
    4.9272    2.7500    0.0000 H   0  0  0  0  0  0  0  0  0  0  0  0
    4.9272    1.1300    0.0000 H   0  0  0  0  0  0  0  0  0  0  0  0
    7.7331    1.1300    0.0000 H   0  0  0  0  0  0  0  0  0  0  0  0
    7.7331   -0.2500    0.0000 H   0  0  0  0  0  0  0  0  0  0  0  0
    4.0611   -1.7500    0.0000 H   0  0  0  0  0  0  0  0  0  0  0  0
    6.0010   -3.2500    0.0000 H   0  0  0  0  0  0  0  0  0  0  0  0
    3.1951   -3.2500    0.0000 H   0  0  0  0  0  0  0  0  0  0  0  0
    7.7331   -1.8700    0.0000 H   0  0  0  0  0  0  0  0  0  0  0  0
    2.3100   -4.0231    0.0000 H   0  0  0  0  0  0  0  0  0  0  0  0
    1.4631   -4.2500    0.0000 H   0  0  0  0  0  0  0  0  0  0  0  0
    1.6900   -5.0969    0.0000 H   0  0  0  0  0  0  0  0  0  0  0  0
    5.7101   -6.0600    0.0000 H   0  0  0  0  0  0  0  0  0  0  0  0
    6.3301   -6.6800    0.0000 H   0  0  0  0  0  0  0  0  0  0  0  0
    6.9501   -6.0600    0.0000 H   0  0  0  0  0  0  0  0  0  0  0  0
    3.4220   -6.0231    0.0000 H   0  0  0  0  0  0  0  0  0  0  0  0
    3.1951   -6.8700    0.0000 H   0  0  0  0  0  0  0  0  0  0  0  0
    4.0420   -7.0969    0.0000 H   0  0  0  0  0  0  0  0  0  0  0  0
  1 25  1  0  0  0  0
  1 29  1  0  0  0  0
  2 26  1  0  0  0  0
  2 30  1  0  0  0  0
  3 27  1  0  0  0  0
  3 31  1  0  0  0  0
  4 10  1  0  0  0  0
  4 11  1  0  0  0  0
  4 14  1  0  0  0  0
  5 12  1  0  0  0  0
  5 13  1  0  0  0  0
  5 40  1  0  0  0  0
  6 14  2  0  0  0  0
  6 18  1  0  0  0  0
  7 19  2  0  0  0  0
  7 22  1  0  0  0  0
  8 21  1  0  0  0  0
  8 22  1  0  0  0  0
  8 45  1  0  0  0  0
  9 22  2  0  0  0  0
  9 28  1  0  0  0  0
 10 12  1  0  0  0  0
 10 32  1  0  0  0  0
 10 33  1  0  0  0  0
 11 13  1  0  0  0  0
 11 34  1  0  0  0  0
 11 35  1  0  0  0  0
 12 36  1  0  0  0  0
 12 37  1  0  0  0  0
 13 38  1  0  0  0  0
 13 39  1  0  0  0  0
 14 15  1  0  0  0  0
 15 16  2  0  0  0  0
 15 41  1  0  0  0  0
 16 17  1  0  0  0  0
 16 42  1  0  0  0  0
 17 18  2  0  0  0  0
 17 19  1  0  0  0  0
 18 43  1  0  0  0  0
 19 20  1  0  0  0  0
 20 28  2  0  0  0  0
 20 44  1  0  0  0  0
 21 23  2  0  0  0  0
 21 24  1  0  0  0  0
 23 26  1  0  0  0  0
 23 46  1  0  0  0  0
 24 25  2  0  0  0  0
 24 47  1  0  0  0  0
 25 27  1  0  0  0  0
 26 27  2  0  0  0  0
 28 48  1  0  0  0  0
 29 49  1  0  0  0  0
 29 50  1  0  0  0  0
 29 51  1  0  0  0  0
 30 52  1  0  0  0  0
 30 53  1  0  0  0  0
 30 54  1  0  0  0  0
 31 55  1  0  0  0  0
 31 56  1  0  0  0  0
 31 57  1  0  0  0  0
M  END
> <PUBCHEM_COMPOUND_CID>
9888491

> <PUBCHEM_COMPOUND_CANONICALIZED>
1

> <PUBCHEM_CACTVS_COMPLEXITY>
523

> <PUBCHEM_CACTVS_HBOND_ACCEPTOR>
9

> <PUBCHEM_CACTVS_HBOND_DONOR>
2

> <PUBCHEM_CACTVS_ROTATABLE_BOND>
7

> <PUBCHEM_CACTVS_SUBSKEYS>
AAADceB7sAAAAAAAAAAAAAAAAAAAAAAAAAA8WLEAAAAAAAAB8AAAHgAQAAAADAzBngY/9pfIFACgAzZnZACCiCkxIqAJ2KA+7JiNb+LE+duUNCpv0B/K6Cew8A8OAEAACgAAQAAAgAAUAACAAAAAAAAAAA==

> <PUBCHEM_IUPAC_OPENEYE_NAME>
4-(6-piperazin-1-yl-3-pyridyl)-N-(3,4,5-trimethoxyphenyl)pyrimidin-2-amine

> <PUBCHEM_IUPAC_CAS_NAME>
4-[6-(1-piperazinyl)-3-pyridinyl]-N-(3,4,5-trimethoxyphenyl)-2-pyrimidinamine

> <PUBCHEM_IUPAC_NAME_MARKUP>
4-(6-piperazin-1-ylpyridin-3-yl)-<I>N</I>-(3,4,5-trimethoxyphenyl)pyrimidin-2-amine

> <PUBCHEM_IUPAC_NAME>
4-(6-piperazin-1-ylpyridin-3-yl)-N-(3,4,5-trimethoxyphenyl)pyrimidin-2-amine

> <PUBCHEM_IUPAC_SYSTEMATIC_NAME>
4-(6-piperazin-1-ylpyridin-3-yl)-N-(3,4,5-trimethoxyphenyl)pyrimidin-2-amine

> <PUBCHEM_IUPAC_TRADITIONAL_NAME>
[4-(6-piperazino-3-pyridyl)pyrimidin-2-yl]-(3,4,5-trimethoxyphenyl)amine

> <PUBCHEM_IUPAC_INCHI>
InChI=1S/C22H26N6O3/c1-29-18-12-16(13-19(30-2)21(18)31-3)26-22-24-7-6-17(27-22)15-4-5-20(25-14-15)28-10-8-23-9-11-28/h4-7,12-14,23H,8-11H2,1-3H3,(H,24,26,27)

> <PUBCHEM_IUPAC_INCHIKEY>
NQXBCUWKAWQTMT-UHFFFAOYSA-N

> <PUBCHEM_XLOGP3_AA>
2.4

> <PUBCHEM_EXACT_MASS>
422.20663871

> <PUBCHEM_MOLECULAR_FORMULA>
C22H26N6O3

> <PUBCHEM_MOLECULAR_WEIGHT>
422.5

> <PUBCHEM_SMILES>
COC1=CC(=CC(=C1OC)OC)NC2=NC=CC(=N2)C3=CN=C(C=C3)N4CCNCC4

> <PUBCHEM_OPENEYE_CAN_SMILES>
COC1=CC(=CC(=C1OC)OC)NC2=NC=CC(=N2)C3=CN=C(C=C3)N4CCNCC4

> <PUBCHEM_OPENEYE_ISO_SMILES>
COC1=CC(=CC(=C1OC)OC)NC2=NC=CC(=N2)C3=CN=C(C=C3)N4CCNCC4

> <PUBCHEM_CACTVS_TPSA>
93.7

> <PUBCHEM_MONOISOTOPIC_WEIGHT>
422.20663871

> <PUBCHEM_TOTAL_CHARGE>
0

> <PUBCHEM_HEAVY_ATOM_COUNT>
31

> <PUBCHEM_ATOM_DEF_STEREO_COUNT>
0

> <PUBCHEM_ATOM_UDEF_STEREO_COUNT>
0

> <PUBCHEM_BOND_DEF_STEREO_COUNT>
0

> <PUBCHEM_BOND_UDEF_STEREO_COUNT>
0

> <PUBCHEM_ISOTOPIC_ATOM_COUNT>
0

> <PUBCHEM_COMPONENT_COUNT>
1

> <PUBCHEM_CACTVS_TAUTO_COUNT>
-1

> <PUBCHEM_COORDINATE_TYPE>
1
5
255

> <PUBCHEM_BONDANNOTATIONS>
14  15  8
15  16  8
16  17  8
17  18  8
19  20  8
20  28  8
21  23  8
21  24  8
23  26  8
24  25  8
25  27  8
26  27  8
6  14  8
6  18  8
7  19  8
7  22  8
9  22  8
9  28  8

$$$$
