46228951
  -OEChem-03202507112D

 45 48  0     0  0  0  0  0  0999 V2000
    3.8660   -3.5530    0.0000 F   0  0  0  0  0  0  0  0  0  0  0  0
    2.1340   -0.5530    0.0000 F   0  0  0  0  0  0  0  0  0  0  0  0
    2.1340   -2.5530    0.0000 F   0  0  0  0  0  0  0  0  0  0  0  0
    3.0000    5.9470    0.0000 F   0  0  0  0  0  0  0  0  0  0  0  0
    2.0000    4.9470    0.0000 F   0  0  0  0  0  0  0  0  0  0  0  0
    4.0000    4.9470    0.0000 F   0  0  0  0  0  0  0  0  0  0  0  0
    5.5981   -2.5530    0.0000 O   0  0  0  0  0  0  0  0  0  0  0  0
    8.9939   -4.5530    0.0000 O   0  0  0  0  0  0  0  0  0  0  0  0
    3.0000    3.9470    0.0000 O   0  0  0  0  0  0  0  0  0  0  0  0
    5.5981    0.4470    0.0000 O   0  0  0  0  0  0  0  0  0  0  0  0
    7.4103   -3.7482    0.0000 N   0  0  0  0  0  0  0  0  0  0  0  0
    7.4103   -5.3577    0.0000 N   0  0  0  0  0  0  0  0  0  0  0  0
    3.8660    0.4470    0.0000 N   0  0  0  0  0  0  0  0  0  0  0  0
    6.4641   -4.0530    0.0000 C   0  0  0  0  0  0  0  0  0  0  0  0
    6.4641   -5.0530    0.0000 C   0  0  0  0  0  0  0  0  0  0  0  0
    5.5981   -3.5530    0.0000 C   0  0  0  0  0  0  0  0  0  0  0  0
    5.5981   -5.5530    0.0000 C   0  0  0  0  0  0  0  0  0  0  0  0
    4.7320   -4.0530    0.0000 C   0  0  0  0  0  0  0  0  0  0  0  0
    7.9939   -4.5530    0.0000 C   0  0  0  0  0  0  0  0  0  0  0  0
    4.7320   -2.0530    0.0000 C   0  0  0  0  0  0  0  0  0  0  0  0
    4.7320   -5.0530    0.0000 C   0  0  0  0  0  0  0  0  0  0  0  0
    3.8660   -0.5530    0.0000 C   0  0  0  0  0  0  0  0  0  0  0  0
    4.7320   -1.0530    0.0000 C   0  0  0  0  0  0  0  0  0  0  0  0
    3.8660   -2.5530    0.0000 C   0  0  0  0  0  0  0  0  0  0  0  0
    3.0000   -1.0530    0.0000 C   0  0  0  0  0  0  0  0  0  0  0  0
    3.0000   -2.0530    0.0000 C   0  0  0  0  0  0  0  0  0  0  0  0
    4.7320    1.9470    0.0000 C   0  0  0  0  0  0  0  0  0  0  0  0
    4.7320    0.9470    0.0000 C   0  0  0  0  0  0  0  0  0  0  0  0
    3.8660    2.4470    0.0000 C   0  0  0  0  0  0  0  0  0  0  0  0
    5.5981    2.4470    0.0000 C   0  0  0  0  0  0  0  0  0  0  0  0
    3.8660    3.4470    0.0000 C   0  0  0  0  0  0  0  0  0  0  0  0
    5.5981    3.4470    0.0000 C   0  0  0  0  0  0  0  0  0  0  0  0
    4.7320    3.9470    0.0000 C   0  0  0  0  0  0  0  0  0  0  0  0
    3.0000    4.9470    0.0000 C   0  0  0  0  0  0  0  0  0  0  0  0
    7.6029   -3.1589    0.0000 H   0  0  0  0  0  0  0  0  0  0  0  0
    7.6029   -5.9470    0.0000 H   0  0  0  0  0  0  0  0  0  0  0  0
    5.5981   -6.1730    0.0000 H   0  0  0  0  0  0  0  0  0  0  0  0
    4.1951   -3.7430    0.0000 H   0  0  0  0  0  0  0  0  0  0  0  0
    4.1951   -5.3630    0.0000 H   0  0  0  0  0  0  0  0  0  0  0  0
    5.2690   -0.7430    0.0000 H   0  0  0  0  0  0  0  0  0  0  0  0
    3.3291    0.7570    0.0000 H   0  0  0  0  0  0  0  0  0  0  0  0
    3.3291    2.1370    0.0000 H   0  0  0  0  0  0  0  0  0  0  0  0
    6.1350    2.1370    0.0000 H   0  0  0  0  0  0  0  0  0  0  0  0
    6.1350    3.7570    0.0000 H   0  0  0  0  0  0  0  0  0  0  0  0
    4.7320    4.5670    0.0000 H   0  0  0  0  0  0  0  0  0  0  0  0
  1 24  1  0  0  0  0
  2 25  1  0  0  0  0
  3 26  1  0  0  0  0
  4 34  1  0  0  0  0
  5 34  1  0  0  0  0
  6 34  1  0  0  0  0
  7 16  1  0  0  0  0
  7 20  1  0  0  0  0
  8 19  2  0  0  0  0
  9 31  1  0  0  0  0
  9 34  1  0  0  0  0
 10 28  2  0  0  0  0
 11 14  1  0  0  0  0
 11 19  1  0  0  0  0
 11 35  1  0  0  0  0
 12 15  1  0  0  0  0
 12 19  1  0  0  0  0
 12 36  1  0  0  0  0
 13 22  1  0  0  0  0
 13 28  1  0  0  0  0
 13 41  1  0  0  0  0
 14 15  2  0  0  0  0
 14 16  1  0  0  0  0
 15 17  1  0  0  0  0
 16 18  2  0  0  0  0
 17 21  2  0  0  0  0
 17 37  1  0  0  0  0
 18 21  1  0  0  0  0
 18 38  1  0  0  0  0
 20 23  1  0  0  0  0
 20 24  2  0  0  0  0
 21 39  1  0  0  0  0
 22 23  2  0  0  0  0
 22 25  1  0  0  0  0
 23 40  1  0  0  0  0
 24 26  1  0  0  0  0
 25 26  2  0  0  0  0
 27 28  1  0  0  0  0
 27 29  2  0  0  0  0
 27 30  1  0  0  0  0
 29 31  1  0  0  0  0
 29 42  1  0  0  0  0
 30 32  2  0  0  0  0
 30 43  1  0  0  0  0
 31 33  2  0  0  0  0
 32 33  1  0  0  0  0
 32 44  1  0  0  0  0
 33 45  1  0  0  0  0
M  END
> <PUBCHEM_COMPOUND_CID>
46228951

> <PUBCHEM_COMPOUND_CANONICALIZED>
1

> <PUBCHEM_CACTVS_COMPLEXITY>
759

> <PUBCHEM_CACTVS_HBOND_ACCEPTOR>
10

> <PUBCHEM_CACTVS_HBOND_DONOR>
3

> <PUBCHEM_CACTVS_ROTATABLE_BOND>
5

> <PUBCHEM_CACTVS_SUBSKEYS>
AAADccB7OcAAAAAAAAAAAAAAAAAAAWAAAAAwYMAAAAAAAFgBUAAAHwAQAAAADAyBmBgxxoLABACIAiVSUACCCAAlIgAIiAEHfMiOZjLEtZuXOSju1BvY6ae62BOOAAABAgAAECAAAAIEAAAgQAAAAAAAAA==

> <PUBCHEM_IUPAC_OPENEYE_NAME>
3-(trifluoromethoxy)-N-[2,3,4-trifluoro-5-[(2-oxo-1,3-dihydrobenzimidazol-4-yl)oxy]phenyl]benzamide

> <PUBCHEM_IUPAC_CAS_NAME>
3-(trifluoromethoxy)-N-[2,3,4-trifluoro-5-[(2-oxo-1,3-dihydrobenzimidazol-4-yl)oxy]phenyl]benzamide

> <PUBCHEM_IUPAC_NAME_MARKUP>
3-(trifluoromethoxy)-<I>N</I>-[2,3,4-trifluoro-5-[(2-oxo-1,3-dihydrobenzimidazol-4-yl)oxy]phenyl]benzamide

> <PUBCHEM_IUPAC_NAME>
3-(trifluoromethoxy)-N-[2,3,4-trifluoro-5-[(2-oxo-1,3-dihydrobenzimidazol-4-yl)oxy]phenyl]benzamide

> <PUBCHEM_IUPAC_SYSTEMATIC_NAME>
3-(trifluoromethyloxy)-N-[2,3,4-tris(fluoranyl)-5-[(2-oxidanylidene-1,3-dihydrobenzimidazol-4-yl)oxy]phenyl]benzamide

> <PUBCHEM_IUPAC_TRADITIONAL_NAME>
N-[2,3,4-trifluoro-5-[(2-keto-1,3-dihydrobenzimidazol-4-yl)oxy]phenyl]-3-(trifluoromethoxy)benzamide

> <PUBCHEM_IUPAC_INCHI>
InChI=1S/C21H11F6N3O4/c22-15-12(28-19(31)9-3-1-4-10(7-9)34-21(25,26)27)8-14(16(23)17(15)24)33-13-6-2-5-11-18(13)30-20(32)29-11/h1-8H,(H,28,31)(H2,29,30,32)

> <PUBCHEM_IUPAC_INCHIKEY>
VVYFYJMXONNWBA-UHFFFAOYSA-N

> <PUBCHEM_XLOGP3_AA>
4.4

> <PUBCHEM_EXACT_MASS>
483.06537481

> <PUBCHEM_MOLECULAR_FORMULA>
C21H11F6N3O4

> <PUBCHEM_MOLECULAR_WEIGHT>
483.3

> <PUBCHEM_SMILES>
C1=CC(=CC(=C1)OC(F)(F)F)C(=O)NC2=CC(=C(C(=C2F)F)F)OC3=CC=CC4=C3NC(=O)N4

> <PUBCHEM_OPENEYE_CAN_SMILES>
C1=CC(=CC(=C1)OC(F)(F)F)C(=O)NC2=CC(=C(C(=C2F)F)F)OC3=CC=CC4=C3NC(=O)N4

> <PUBCHEM_OPENEYE_ISO_SMILES>
C1=CC(=CC(=C1)OC(F)(F)F)C(=O)NC2=CC(=C(C(=C2F)F)F)OC3=CC=CC4=C3NC(=O)N4

> <PUBCHEM_CACTVS_TPSA>
88.7

> <PUBCHEM_MONOISOTOPIC_WEIGHT>
483.06537481

> <PUBCHEM_TOTAL_CHARGE>
0

> <PUBCHEM_HEAVY_ATOM_COUNT>
34

> <PUBCHEM_ATOM_DEF_STEREO_COUNT>
0

> <PUBCHEM_ATOM_UDEF_STEREO_COUNT>
0

> <PUBCHEM_BOND_DEF_STEREO_COUNT>
0

> <PUBCHEM_BOND_UDEF_STEREO_COUNT>
0

> <PUBCHEM_ISOTOPIC_ATOM_COUNT>
0

> <PUBCHEM_COMPONENT_COUNT>
1

> <PUBCHEM_CACTVS_TAUTO_COUNT>
-1

> <PUBCHEM_COORDINATE_TYPE>
1
5
255

> <PUBCHEM_BONDANNOTATIONS>
11  14  8
11  19  8
12  15  8
12  19  8
14  15  8
14  16  8
15  17  8
16  18  8
17  21  8
18  21  8
20  23  8
20  24  8
22  23  8
22  25  8
24  26  8
25  26  8
27  29  8
27  30  8
29  31  8
30  32  8
31  33  8
32  33  8

$$$$
