11577250
  -OEChem-03202501072D

 77 81  0     1  0  0  0  0  0999 V2000
    2.8660    1.5432    0.0000 O   0  0  0  0  0  0  0  0  0  0  0  0
   11.6038    2.5057    0.0000 O   0  0  0  0  0  0  0  0  0  0  0  0
    9.8564   -1.4876    0.0000 O   0  0  0  0  0  0  0  0  0  0  0  0
    4.5981   -0.4568    0.0000 N   0  0  3  0  0  0  0  0  0  0  0  0
    4.5981    1.5432    0.0000 N   0  0  0  0  0  0  0  0  0  0  0  0
    6.3580   -0.4915    0.0000 N   0  0  0  0  0  0  0  0  0  0  0  0
   15.0679    2.4923    0.0000 N   0  0  0  0  0  0  0  0  0  0  0  0
   12.4641    1.0023    0.0000 N   0  0  0  0  0  0  0  0  0  0  0  0
    7.2641    1.0640    0.0000 N   0  0  0  0  0  0  0  0  0  0  0  0
    8.1282   -0.4810    0.0000 N   0  0  0  0  0  0  0  0  0  0  0  0
    4.5981   -1.4568    0.0000 C   0  0  0  0  0  0  0  0  0  0  0  0
    3.7891   -2.0446    0.0000 C   0  0  0  0  0  0  0  0  0  0  0  0
    5.4071   -2.0446    0.0000 C   0  0  0  0  0  0  0  0  0  0  0  0
    4.0981   -2.9956    0.0000 C   0  0  0  0  0  0  0  0  0  0  0  0
    5.0981   -2.9956    0.0000 C   0  0  0  0  0  0  0  0  0  0  0  0
    3.7320    0.0432    0.0000 C   0  0  3  0  0  0  0  0  0  0  0  0
    5.4641    0.0432    0.0000 C   0  0  0  0  0  0  0  0  0  0  0  0
    2.8660   -0.4568    0.0000 C   0  0  0  0  0  0  0  0  0  0  0  0
    3.7320    1.0432    0.0000 C   0  0  0  0  0  0  0  0  0  0  0  0
    5.4641    1.0432    0.0000 C   0  0  0  0  0  0  0  0  0  0  0  0
   13.3320    1.4990    0.0000 C   0  0  0  0  0  0  0  0  0  0  0  0
    2.0000    0.0432    0.0000 C   0  0  0  0  0  0  0  0  0  0  0  0
   13.3359    2.4990    0.0000 C   0  0  0  0  0  0  0  0  0  0  0  0
   14.1961    0.9957    0.0000 C   0  0  0  0  0  0  0  0  0  0  0  0
   14.2038    2.9956    0.0000 C   0  0  0  0  0  0  0  0  0  0  0  0
   15.0641    1.4923    0.0000 C   0  0  0  0  0  0  0  0  0  0  0  0
    6.3580    1.5778    0.0000 C   0  0  0  0  0  0  0  0  0  0  0  0
    4.5981    2.5432    0.0000 C   0  0  0  0  0  0  0  0  0  0  0  0
    7.2641    0.0224    0.0000 C   0  0  0  0  0  0  0  0  0  0  0  0
   15.9359    2.9890    0.0000 C   0  0  0  0  0  0  0  0  0  0  0  0
   11.6000    1.5057    0.0000 C   0  0  0  0  0  0  0  0  0  0  0  0
    8.9962    0.0157    0.0000 C   0  0  0  0  0  0  0  0  0  0  0  0
   10.7320    1.0090    0.0000 C   0  0  0  0  0  0  0  0  0  0  0  0
    9.8602   -0.4876    0.0000 C   0  0  0  0  0  0  0  0  0  0  0  0
   10.7282    0.0090    0.0000 C   0  0  0  0  0  0  0  0  0  0  0  0
    9.0000    1.0157    0.0000 C   0  0  0  0  0  0  0  0  0  0  0  0
    9.8680    1.5124    0.0000 C   0  0  0  0  0  0  0  0  0  0  0  0
   10.7205   -1.9910    0.0000 C   0  0  0  0  0  0  0  0  0  0  0  0
    5.1505   -1.1753    0.0000 H   0  0  0  0  0  0  0  0  0  0  0  0
    3.4791   -1.5077    0.0000 H   0  0  0  0  0  0  0  0  0  0  0  0
    3.2227   -2.2968    0.0000 H   0  0  0  0  0  0  0  0  0  0  0  0
    5.9735   -2.2968    0.0000 H   0  0  0  0  0  0  0  0  0  0  0  0
    5.7171   -1.5077    0.0000 H   0  0  0  0  0  0  0  0  0  0  0  0
    3.4916   -3.1246    0.0000 H   0  0  0  0  0  0  0  0  0  0  0  0
    4.1629   -3.6122    0.0000 H   0  0  0  0  0  0  0  0  0  0  0  0
    5.0333   -3.6122    0.0000 H   0  0  0  0  0  0  0  0  0  0  0  0
    5.7045   -3.1246    0.0000 H   0  0  0  0  0  0  0  0  0  0  0  0
    3.7320   -0.5768    0.0000 H   0  0  0  0  0  0  0  0  0  0  0  0
    2.4675   -0.9318    0.0000 H   0  0  0  0  0  0  0  0  0  0  0  0
    3.2646   -0.9318    0.0000 H   0  0  0  0  0  0  0  0  0  0  0  0
   12.7963    1.8111    0.0000 H   0  0  0  0  0  0  0  0  0  0  0  0
    2.3100    0.5801    0.0000 H   0  0  0  0  0  0  0  0  0  0  0  0
    1.4631    0.3532    0.0000 H   0  0  0  0  0  0  0  0  0  0  0  0
    1.6900   -0.4937    0.0000 H   0  0  0  0  0  0  0  0  0  0  0  0
   13.1261    3.0824    0.0000 H   0  0  0  0  0  0  0  0  0  0  0  0
   12.7249    2.3937    0.0000 H   0  0  0  0  0  0  0  0  0  0  0  0
   13.7958    0.5223    0.0000 H   0  0  0  0  0  0  0  0  0  0  0  0
   14.5928    0.5192    0.0000 H   0  0  0  0  0  0  0  0  0  0  0  0
   14.6042    3.4691    0.0000 H   0  0  0  0  0  0  0  0  0  0  0  0
   13.8071    3.4721    0.0000 H   0  0  0  0  0  0  0  0  0  0  0  0
   15.2739    0.9089    0.0000 H   0  0  0  0  0  0  0  0  0  0  0  0
   15.6751    1.5976    0.0000 H   0  0  0  0  0  0  0  0  0  0  0  0
    6.3509    2.1978    0.0000 H   0  0  0  0  0  0  0  0  0  0  0  0
    5.2181    2.5432    0.0000 H   0  0  0  0  0  0  0  0  0  0  0  0
    4.5981    3.1632    0.0000 H   0  0  0  0  0  0  0  0  0  0  0  0
    3.9781    2.5432    0.0000 H   0  0  0  0  0  0  0  0  0  0  0  0
   12.4617    0.3823    0.0000 H   0  0  0  0  0  0  0  0  0  0  0  0
   16.2438    2.4508    0.0000 H   0  0  0  0  0  0  0  0  0  0  0  0
   16.4740    3.2969    0.0000 H   0  0  0  0  0  0  0  0  0  0  0  0
   15.6279    3.5271    0.0000 H   0  0  0  0  0  0  0  0  0  0  0  0
    8.1258   -1.1010    0.0000 H   0  0  0  0  0  0  0  0  0  0  0  0
   11.2639   -0.3030    0.0000 H   0  0  0  0  0  0  0  0  0  0  0  0
    8.4643    1.3278    0.0000 H   0  0  0  0  0  0  0  0  0  0  0  0
    9.8703    2.1324    0.0000 H   0  0  0  0  0  0  0  0  0  0  0  0
   10.4084   -2.5267    0.0000 H   0  0  0  0  0  0  0  0  0  0  0  0
   11.2562   -2.3030    0.0000 H   0  0  0  0  0  0  0  0  0  0  0  0
   11.0325   -1.4552    0.0000 H   0  0  0  0  0  0  0  0  0  0  0  0
  1 19  2  0  0  0  0
  2 31  2  0  0  0  0
  3 34  1  0  0  0  0
  3 38  1  0  0  0  0
  4 11  1  0  0  0  0
  4 16  1  0  0  0  0
  4 17  1  0  0  0  0
  5 19  1  0  0  0  0
  5 20  1  0  0  0  0
  5 28  1  0  0  0  0
  6 17  2  0  0  0  0
  6 29  1  0  0  0  0
  7 25  1  0  0  0  0
  7 26  1  0  0  0  0
  7 30  1  0  0  0  0
  8 21  1  0  0  0  0
  8 31  1  0  0  0  0
  8 67  1  0  0  0  0
  9 27  1  0  0  0  0
  9 29  2  0  0  0  0
 10 29  1  0  0  0  0
 10 32  1  0  0  0  0
 10 71  1  0  0  0  0
 11 12  1  0  0  0  0
 11 13  1  0  0  0  0
 11 39  1  0  0  0  0
 12 14  1  0  0  0  0
 12 40  1  0  0  0  0
 12 41  1  0  0  0  0
 13 15  1  0  0  0  0
 13 42  1  0  0  0  0
 13 43  1  0  0  0  0
 14 15  1  0  0  0  0
 14 44  1  0  0  0  0
 14 45  1  0  0  0  0
 15 46  1  0  0  0  0
 15 47  1  0  0  0  0
 16 18  1  0  0  0  0
 16 19  1  0  0  0  0
 16 48  1  0  0  0  0
 17 20  1  0  0  0  0
 18 22  1  0  0  0  0
 18 49  1  0  0  0  0
 18 50  1  0  0  0  0
 20 27  2  0  0  0  0
 21 23  1  0  0  0  0
 21 24  1  0  0  0  0
 21 51  1  0  0  0  0
 22 52  1  0  0  0  0
 22 53  1  0  0  0  0
 22 54  1  0  0  0  0
 23 25  1  0  0  0  0
 23 55  1  0  0  0  0
 23 56  1  0  0  0  0
 24 26  1  0  0  0  0
 24 57  1  0  0  0  0
 24 58  1  0  0  0  0
 25 59  1  0  0  0  0
 25 60  1  0  0  0  0
 26 61  1  0  0  0  0
 26 62  1  0  0  0  0
 27 63  1  0  0  0  0
 28 64  1  0  0  0  0
 28 65  1  0  0  0  0
 28 66  1  0  0  0  0
 30 68  1  0  0  0  0
 30 69  1  0  0  0  0
 30 70  1  0  0  0  0
 31 33  1  0  0  0  0
 32 34  2  0  0  0  0
 32 36  1  0  0  0  0
 33 35  2  0  0  0  0
 33 37  1  0  0  0  0
 34 35  1  0  0  0  0
 35 72  1  0  0  0  0
 36 37  2  0  0  0  0
 36 73  1  0  0  0  0
 37 74  1  0  0  0  0
 38 75  1  0  0  0  0
 38 76  1  0  0  0  0
 38 77  1  0  0  0  0
M  END
> <PUBCHEM_COMPOUND_CID>
11577250

> <PUBCHEM_COMPOUND_CANONICALIZED>
1

> <PUBCHEM_CACTVS_COMPLEXITY>
816

> <PUBCHEM_CACTVS_HBOND_ACCEPTOR>
8

> <PUBCHEM_CACTVS_HBOND_DONOR>
2

> <PUBCHEM_CACTVS_ROTATABLE_BOND>
7

> <PUBCHEM_CACTVS_SUBSKEYS>
AAADcfB7sAAAAAAAAAAAAAAAAAAAAYAAAAA8WLEAAAAAAACxwAAAHgAQAAAADCzBmgY/9pfIFACoAjd3dACCiCk1MqAJ2KGvfNiObrLE/fuVNShs1hPY6ae6yRCeCAABAAAAEAAQAAIAAAAgAAAAAAAAAA==

> <PUBCHEM_IUPAC_OPENEYE_NAME>
4-[(8-cyclopentyl-7-ethyl-5-methyl-6-oxo-7H-pteridin-2-yl)amino]-3-methoxy-N-(1-methyl-4-piperidyl)benzamide

> <PUBCHEM_IUPAC_CAS_NAME>
4-[(8-cyclopentyl-7-ethyl-5-methyl-6-oxo-7H-pteridin-2-yl)amino]-3-methoxy-N-(1-methyl-4-piperidinyl)benzamide

> <PUBCHEM_IUPAC_NAME_MARKUP>
4-[(8-cyclopentyl-7-ethyl-5-methyl-6-oxo-7<I>H</I>-pteridin-2-yl)amino]-3-methoxy-<I>N</I>-(1-methylpiperidin-4-yl)benzamide

> <PUBCHEM_IUPAC_NAME>
4-[(8-cyclopentyl-7-ethyl-5-methyl-6-oxo-7H-pteridin-2-yl)amino]-3-methoxy-N-(1-methylpiperidin-4-yl)benzamide

> <PUBCHEM_IUPAC_SYSTEMATIC_NAME>
4-[(8-cyclopentyl-7-ethyl-5-methyl-6-oxidanylidene-7H-pteridin-2-yl)amino]-3-methoxy-N-(1-methylpiperidin-4-yl)benzamide

> <PUBCHEM_IUPAC_TRADITIONAL_NAME>
4-[(8-cyclopentyl-7-ethyl-6-keto-5-methyl-7H-pteridin-2-yl)amino]-3-methoxy-N-(1-methyl-4-piperidyl)benzamide

> <PUBCHEM_IUPAC_INCHI>
InChI=1S/C28H39N7O3/c1-5-22-27(37)34(3)23-17-29-28(32-25(23)35(22)20-8-6-7-9-20)31-21-11-10-18(16-24(21)38-4)26(36)30-19-12-14-33(2)15-13-19/h10-11,16-17,19-20,22H,5-9,12-15H2,1-4H3,(H,30,36)(H,29,31,32)

> <PUBCHEM_IUPAC_INCHIKEY>
XQVVPGYIWAGRNI-UHFFFAOYSA-N

> <PUBCHEM_XLOGP3_AA>
3.7

> <PUBCHEM_EXACT_MASS>
521.31143813

> <PUBCHEM_MOLECULAR_FORMULA>
C28H39N7O3

> <PUBCHEM_MOLECULAR_WEIGHT>
521.7

> <PUBCHEM_SMILES>
CCC1C(=O)N(C2=CN=C(N=C2N1C3CCCC3)NC4=C(C=C(C=C4)C(=O)NC5CCN(CC5)C)OC)C

> <PUBCHEM_OPENEYE_CAN_SMILES>
CCC1C(=O)N(C2=CN=C(N=C2N1C3CCCC3)NC4=C(C=C(C=C4)C(=O)NC5CCN(CC5)C)OC)C

> <PUBCHEM_OPENEYE_ISO_SMILES>
CCC1C(=O)N(C2=CN=C(N=C2N1C3CCCC3)NC4=C(C=C(C=C4)C(=O)NC5CCN(CC5)C)OC)C

> <PUBCHEM_CACTVS_TPSA>
103

> <PUBCHEM_MONOISOTOPIC_WEIGHT>
521.31143813

> <PUBCHEM_TOTAL_CHARGE>
0

> <PUBCHEM_HEAVY_ATOM_COUNT>
38

> <PUBCHEM_ATOM_DEF_STEREO_COUNT>
0

> <PUBCHEM_ATOM_UDEF_STEREO_COUNT>
1

> <PUBCHEM_BOND_DEF_STEREO_COUNT>
0

> <PUBCHEM_BOND_UDEF_STEREO_COUNT>
0

> <PUBCHEM_ISOTOPIC_ATOM_COUNT>
0

> <PUBCHEM_COMPONENT_COUNT>
1

> <PUBCHEM_CACTVS_TAUTO_COUNT>
-1

> <PUBCHEM_COORDINATE_TYPE>
1
5
255

> <PUBCHEM_BONDANNOTATIONS>
16  18  3
17  20  8
20  27  8
32  34  8
32  36  8
33  35  8
33  37  8
34  35  8
36  37  8
6  17  8
6  29  8
9  27  8
9  29  8

$$$$
