11048367
  -OEChem-03192523152D

 61 64  0     0  0  0  0  0  0999 V2000
    5.4400   -1.4973    0.0000 O   0  0  0  0  0  0  0  0  0  0  0  0
    2.8660    3.0270    0.0000 O   0  0  0  0  0  0  0  0  0  0  0  0
    2.8660    5.0270    0.0000 O   0  0  0  0  0  0  0  0  0  0  0  0
    6.3465    1.9924    0.0000 N   0  0  0  0  0  0  0  0  0  0  0  0
    6.3233   -0.0074    0.0000 N   0  0  0  0  0  0  0  0  0  0  0  0
    7.1720   -1.5173    0.0000 N   0  0  0  0  0  0  0  0  0  0  0  0
    7.2641    3.5062    0.0000 N   0  0  0  0  0  0  0  0  0  0  0  0
    6.3580    5.0617    0.0000 N   0  0  0  0  0  0  0  0  0  0  0  0
    7.2067    1.4825    0.0000 C   0  0  0  0  0  0  0  0  0  0  0  0
    5.4747    1.5025    0.0000 C   0  0  0  0  0  0  0  0  0  0  0  0
    7.1951    0.4825    0.0000 C   0  0  0  0  0  0  0  0  0  0  0  0
    5.4632    0.5026    0.0000 C   0  0  0  0  0  0  0  0  0  0  0  0
    6.3580    2.9924    0.0000 C   0  0  0  0  0  0  0  0  0  0  0  0
    6.3118   -1.0074    0.0000 C   0  0  0  0  0  0  0  0  0  0  0  0
    5.4641    3.5270    0.0000 C   0  0  0  0  0  0  0  0  0  0  0  0
    5.4641    4.5270    0.0000 C   0  0  0  0  0  0  0  0  0  0  0  0
    4.5981    3.0270    0.0000 C   0  0  0  0  0  0  0  0  0  0  0  0
    7.1604   -2.5173    0.0000 C   0  0  0  0  0  0  0  0  0  0  0  0
    4.5981    5.0270    0.0000 C   0  0  0  0  0  0  0  0  0  0  0  0
    7.1257   -5.5171    0.0000 C   0  0  0  0  0  0  0  0  0  0  0  0
    3.7320    3.5270    0.0000 C   0  0  0  0  0  0  0  0  0  0  0  0
    7.1373   -4.5171    0.0000 C   0  0  0  0  0  0  0  0  0  0  0  0
    7.2641    4.5479    0.0000 C   0  0  0  0  0  0  0  0  0  0  0  0
    3.7320    4.5270    0.0000 C   0  0  0  0  0  0  0  0  0  0  0  0
    8.0206   -3.0272    0.0000 C   0  0  0  0  0  0  0  0  0  0  0  0
    6.2887   -3.0072    0.0000 C   0  0  0  0  0  0  0  0  0  0  0  0
    8.0090   -4.0272    0.0000 C   0  0  0  0  0  0  0  0  0  0  0  0
    6.2771   -4.0072    0.0000 C   0  0  0  0  0  0  0  0  0  0  0  0
    7.9859   -6.0270    0.0000 C   0  0  0  0  0  0  0  0  0  0  0  0
    6.2540   -6.0070    0.0000 C   0  0  0  0  0  0  0  0  0  0  0  0
    2.0000    3.5270    0.0000 C   0  0  0  0  0  0  0  0  0  0  0  0
    2.8660    6.0270    0.0000 C   0  0  0  0  0  0  0  0  0  0  0  0
    7.8160    1.3678    0.0000 H   0  0  0  0  0  0  0  0  0  0  0  0
    7.4254    2.0626    0.0000 H   0  0  0  0  0  0  0  0  0  0  0  0
    5.2694    2.0875    0.0000 H   0  0  0  0  0  0  0  0  0  0  0  0
    4.8630    1.4019    0.0000 H   0  0  0  0  0  0  0  0  0  0  0  0
    7.4004   -0.1025    0.0000 H   0  0  0  0  0  0  0  0  0  0  0  0
    7.8069    0.5831    0.0000 H   0  0  0  0  0  0  0  0  0  0  0  0
    4.8539    0.6173    0.0000 H   0  0  0  0  0  0  0  0  0  0  0  0
    5.2444   -0.0776    0.0000 H   0  0  0  0  0  0  0  0  0  0  0  0
    7.7125   -1.2136    0.0000 H   0  0  0  0  0  0  0  0  0  0  0  0
    4.5981    2.4070    0.0000 H   0  0  0  0  0  0  0  0  0  0  0  0
    6.5924   -5.2009    0.0000 H   0  0  0  0  0  0  0  0  0  0  0  0
    4.5981    5.6470    0.0000 H   0  0  0  0  0  0  0  0  0  0  0  0
    7.7998    4.8599    0.0000 H   0  0  0  0  0  0  0  0  0  0  0  0
    8.5611   -2.7235    0.0000 H   0  0  0  0  0  0  0  0  0  0  0  0
    5.7554   -2.6910    0.0000 H   0  0  0  0  0  0  0  0  0  0  0  0
    8.5424   -4.3434    0.0000 H   0  0  0  0  0  0  0  0  0  0  0  0
    5.7366   -4.3109    0.0000 H   0  0  0  0  0  0  0  0  0  0  0  0
    7.6697   -6.5604    0.0000 H   0  0  0  0  0  0  0  0  0  0  0  0
    8.5192   -6.3432    0.0000 H   0  0  0  0  0  0  0  0  0  0  0  0
    8.3021   -5.4937    0.0000 H   0  0  0  0  0  0  0  0  0  0  0  0
    5.9502   -5.4665    0.0000 H   0  0  0  0  0  0  0  0  0  0  0  0
    5.7135   -6.3108    0.0000 H   0  0  0  0  0  0  0  0  0  0  0  0
    6.5577   -6.5475    0.0000 H   0  0  0  0  0  0  0  0  0  0  0  0
    2.3100    4.0640    0.0000 H   0  0  0  0  0  0  0  0  0  0  0  0
    1.4631    3.8370    0.0000 H   0  0  0  0  0  0  0  0  0  0  0  0
    1.6900    2.9901    0.0000 H   0  0  0  0  0  0  0  0  0  0  0  0
    3.4860    6.0270    0.0000 H   0  0  0  0  0  0  0  0  0  0  0  0
    2.8660    6.6470    0.0000 H   0  0  0  0  0  0  0  0  0  0  0  0
    2.2460    6.0270    0.0000 H   0  0  0  0  0  0  0  0  0  0  0  0
  1 14  2  0  0  0  0
  2 21  1  0  0  0  0
  2 31  1  0  0  0  0
  3 24  1  0  0  0  0
  3 32  1  0  0  0  0
  4  9  1  0  0  0  0
  4 10  1  0  0  0  0
  4 13  1  0  0  0  0
  5 11  1  0  0  0  0
  5 12  1  0  0  0  0
  5 14  1  0  0  0  0
  6 14  1  0  0  0  0
  6 18  1  0  0  0  0
  6 41  1  0  0  0  0
  7 13  2  0  0  0  0
  7 23  1  0  0  0  0
  8 16  1  0  0  0  0
  8 23  2  0  0  0  0
  9 11  1  0  0  0  0
  9 33  1  0  0  0  0
  9 34  1  0  0  0  0
 10 12  1  0  0  0  0
 10 35  1  0  0  0  0
 10 36  1  0  0  0  0
 11 37  1  0  0  0  0
 11 38  1  0  0  0  0
 12 39  1  0  0  0  0
 12 40  1  0  0  0  0
 13 15  1  0  0  0  0
 15 16  1  0  0  0  0
 15 17  2  0  0  0  0
 16 19  2  0  0  0  0
 17 21  1  0  0  0  0
 17 42  1  0  0  0  0
 18 25  2  0  0  0  0
 18 26  1  0  0  0  0
 19 24  1  0  0  0  0
 19 44  1  0  0  0  0
 20 22  1  0  0  0  0
 20 29  1  0  0  0  0
 20 30  1  0  0  0  0
 20 43  1  0  0  0  0
 21 24  2  0  0  0  0
 22 27  2  0  0  0  0
 22 28  1  0  0  0  0
 23 45  1  0  0  0  0
 25 27  1  0  0  0  0
 25 46  1  0  0  0  0
 26 28  2  0  0  0  0
 26 47  1  0  0  0  0
 27 48  1  0  0  0  0
 28 49  1  0  0  0  0
 29 50  1  0  0  0  0
 29 51  1  0  0  0  0
 29 52  1  0  0  0  0
 30 53  1  0  0  0  0
 30 54  1  0  0  0  0
 30 55  1  0  0  0  0
 31 56  1  0  0  0  0
 31 57  1  0  0  0  0
 31 58  1  0  0  0  0
 32 59  1  0  0  0  0
 32 60  1  0  0  0  0
 32 61  1  0  0  0  0
M  END
> <PUBCHEM_COMPOUND_CID>
11048367

> <PUBCHEM_COMPOUND_CANONICALIZED>
1

> <PUBCHEM_CACTVS_COMPLEXITY>
604

> <PUBCHEM_CACTVS_HBOND_ACCEPTOR>
6

> <PUBCHEM_CACTVS_HBOND_DONOR>
1

> <PUBCHEM_CACTVS_ROTATABLE_BOND>
5

> <PUBCHEM_CACTVS_SUBSKEYS>
AAADceB7sAAAAAAAAAAAAAAAAAAAAAAAAAA8eIEAAAAAAACx9AAAHgAQAAAADQzBngY39vfIFACoAyZjdACCiCkxIqAJ2CA+7JiNbqLE+duUNCpu1hvK6Cew0NMOqEABAgACQABQgAIEAASAAAAAAAAAAA==

> <PUBCHEM_IUPAC_OPENEYE_NAME>
4-(6,7-dimethoxyquinazolin-4-yl)-N-(4-isopropylphenyl)piperazine-1-carboxamide

> <PUBCHEM_IUPAC_CAS_NAME>
4-(6,7-dimethoxy-4-quinazolinyl)-N-(4-propan-2-ylphenyl)-1-piperazinecarboxamide

> <PUBCHEM_IUPAC_NAME_MARKUP>
4-(6,7-dimethoxyquinazolin-4-yl)-<I>N</I>-(4-propan-2-ylphenyl)piperazine-1-carboxamide

> <PUBCHEM_IUPAC_NAME>
4-(6,7-dimethoxyquinazolin-4-yl)-N-(4-propan-2-ylphenyl)piperazine-1-carboxamide

> <PUBCHEM_IUPAC_SYSTEMATIC_NAME>
4-(6,7-dimethoxyquinazolin-4-yl)-N-(4-propan-2-ylphenyl)piperazine-1-carboxamide

> <PUBCHEM_IUPAC_TRADITIONAL_NAME>
4-(6,7-dimethoxyquinazolin-4-yl)-N-p-cumenyl-piperazine-1-carboxamide

> <PUBCHEM_IUPAC_INCHI>
InChI=1S/C24H29N5O3/c1-16(2)17-5-7-18(8-6-17)27-24(30)29-11-9-28(10-12-29)23-19-13-21(31-3)22(32-4)14-20(19)25-15-26-23/h5-8,13-16H,9-12H2,1-4H3,(H,27,30)

> <PUBCHEM_IUPAC_INCHIKEY>
CDPYJPHBGSGNJS-UHFFFAOYSA-N

> <PUBCHEM_XLOGP3_AA>
3.7

> <PUBCHEM_EXACT_MASS>
435.22703980

> <PUBCHEM_MOLECULAR_FORMULA>
C24H29N5O3

> <PUBCHEM_MOLECULAR_WEIGHT>
435.5

> <PUBCHEM_SMILES>
CC(C)C1=CC=C(C=C1)NC(=O)N2CCN(CC2)C3=NC=NC4=CC(=C(C=C43)OC)OC

> <PUBCHEM_OPENEYE_CAN_SMILES>
CC(C)C1=CC=C(C=C1)NC(=O)N2CCN(CC2)C3=NC=NC4=CC(=C(C=C43)OC)OC

> <PUBCHEM_OPENEYE_ISO_SMILES>
CC(C)C1=CC=C(C=C1)NC(=O)N2CCN(CC2)C3=NC=NC4=CC(=C(C=C43)OC)OC

> <PUBCHEM_CACTVS_TPSA>
79.8

> <PUBCHEM_MONOISOTOPIC_WEIGHT>
435.22703980

> <PUBCHEM_TOTAL_CHARGE>
0

> <PUBCHEM_HEAVY_ATOM_COUNT>
32

> <PUBCHEM_ATOM_DEF_STEREO_COUNT>
0

> <PUBCHEM_ATOM_UDEF_STEREO_COUNT>
0

> <PUBCHEM_BOND_DEF_STEREO_COUNT>
0

> <PUBCHEM_BOND_UDEF_STEREO_COUNT>
0

> <PUBCHEM_ISOTOPIC_ATOM_COUNT>
0

> <PUBCHEM_COMPONENT_COUNT>
1

> <PUBCHEM_CACTVS_TAUTO_COUNT>
-1

> <PUBCHEM_COORDINATE_TYPE>
1
5
255

> <PUBCHEM_BONDANNOTATIONS>
13  15  8
15  16  8
15  17  8
16  19  8
17  21  8
18  25  8
18  26  8
19  24  8
21  24  8
22  27  8
22  28  8
25  27  8
26  28  8
7  13  8
7  23  8
8  16  8
8  23  8

$$$$
