49830489
  -OEChem-03202501472D

 45 47  0     1  0  0  0  0  0999 V2000
    7.1962    2.7500    0.0000 O   0  0  0  0  0  0  0  0  0  0  0  0
    2.0000    1.7500    0.0000 O   0  0  0  0  0  0  0  0  0  0  0  0
    3.7320    1.7500    0.0000 N   0  0  0  0  0  0  0  0  0  0  0  0
    2.8660   -4.7500    0.0000 N   0  0  0  0  0  0  0  0  0  0  0  0
    3.7320    2.7500    0.0000 C   0  0  3  0  0  0  0  0  0  0  0  0
    4.5981    3.2500    0.0000 C   0  0  0  0  0  0  0  0  0  0  0  0
    2.8660    3.2500    0.0000 C   0  0  0  0  0  0  0  0  0  0  0  0
    5.4641    2.7500    0.0000 C   0  0  0  0  0  0  0  0  0  0  0  0
    4.5981    4.2500    0.0000 C   0  0  0  0  0  0  0  0  0  0  0  0
    2.8660    1.2500    0.0000 C   0  0  0  0  0  0  0  0  0  0  0  0
    2.8660    0.2500    0.0000 C   0  0  0  0  0  0  0  0  0  0  0  0
    6.3301    3.2500    0.0000 C   0  0  0  0  0  0  0  0  0  0  0  0
    2.8660   -1.7500    0.0000 C   0  0  0  0  0  0  0  0  0  0  0  0
    5.4641    4.7500    0.0000 C   0  0  0  0  0  0  0  0  0  0  0  0
    3.7320   -0.2500    0.0000 C   0  0  0  0  0  0  0  0  0  0  0  0
    2.0000   -0.2500    0.0000 C   0  0  0  0  0  0  0  0  0  0  0  0
    6.3301    4.2500    0.0000 C   0  0  0  0  0  0  0  0  0  0  0  0
    3.7320   -1.2500    0.0000 C   0  0  0  0  0  0  0  0  0  0  0  0
    2.0000   -1.2500    0.0000 C   0  0  0  0  0  0  0  0  0  0  0  0
    2.8660   -2.7500    0.0000 C   0  0  0  0  0  0  0  0  0  0  0  0
    2.0000   -3.2500    0.0000 C   0  0  0  0  0  0  0  0  0  0  0  0
    3.7320   -3.2500    0.0000 C   0  0  0  0  0  0  0  0  0  0  0  0
    2.0000   -4.2500    0.0000 C   0  0  0  0  0  0  0  0  0  0  0  0
    3.7320   -4.2500    0.0000 C   0  0  0  0  0  0  0  0  0  0  0  0
    8.0622    3.2500    0.0000 C   0  0  0  0  0  0  0  0  0  0  0  0
    4.2690    2.4400    0.0000 H   0  0  0  0  0  0  0  0  0  0  0  0
    4.2690    1.4400    0.0000 H   0  0  0  0  0  0  0  0  0  0  0  0
    3.1760    3.7869    0.0000 H   0  0  0  0  0  0  0  0  0  0  0  0
    2.3291    3.5600    0.0000 H   0  0  0  0  0  0  0  0  0  0  0  0
    2.5560    2.7131    0.0000 H   0  0  0  0  0  0  0  0  0  0  0  0
    5.4641    2.1300    0.0000 H   0  0  0  0  0  0  0  0  0  0  0  0
    4.0611    4.5600    0.0000 H   0  0  0  0  0  0  0  0  0  0  0  0
    5.4641    5.3700    0.0000 H   0  0  0  0  0  0  0  0  0  0  0  0
    4.2690    0.0600    0.0000 H   0  0  0  0  0  0  0  0  0  0  0  0
    1.4631    0.0600    0.0000 H   0  0  0  0  0  0  0  0  0  0  0  0
    6.8671    4.5600    0.0000 H   0  0  0  0  0  0  0  0  0  0  0  0
    4.2690   -1.5600    0.0000 H   0  0  0  0  0  0  0  0  0  0  0  0
    1.4631   -1.5600    0.0000 H   0  0  0  0  0  0  0  0  0  0  0  0
    1.4631   -2.9400    0.0000 H   0  0  0  0  0  0  0  0  0  0  0  0
    4.2690   -2.9400    0.0000 H   0  0  0  0  0  0  0  0  0  0  0  0
    1.4631   -4.5600    0.0000 H   0  0  0  0  0  0  0  0  0  0  0  0
    4.2690   -4.5600    0.0000 H   0  0  0  0  0  0  0  0  0  0  0  0
    8.3722    2.7131    0.0000 H   0  0  0  0  0  0  0  0  0  0  0  0
    8.5991    3.5600    0.0000 H   0  0  0  0  0  0  0  0  0  0  0  0
    7.7522    3.7869    0.0000 H   0  0  0  0  0  0  0  0  0  0  0  0
  1 12  1  0  0  0  0
  1 25  1  0  0  0  0
  2 10  2  0  0  0  0
  3  5  1  0  0  0  0
  3 10  1  0  0  0  0
  3 27  1  0  0  0  0
  4 23  2  0  0  0  0
  4 24  1  0  0  0  0
  5  6  1  0  0  0  0
  5  7  1  0  0  0  0
  5 26  1  0  0  0  0
  6  8  2  0  0  0  0
  6  9  1  0  0  0  0
  7 28  1  0  0  0  0
  7 29  1  0  0  0  0
  7 30  1  0  0  0  0
  8 12  1  0  0  0  0
  8 31  1  0  0  0  0
  9 14  2  0  0  0  0
  9 32  1  0  0  0  0
 10 11  1  0  0  0  0
 11 15  2  0  0  0  0
 11 16  1  0  0  0  0
 12 17  2  0  0  0  0
 13 18  2  0  0  0  0
 13 19  1  0  0  0  0
 13 20  1  0  0  0  0
 14 17  1  0  0  0  0
 14 33  1  0  0  0  0
 15 18  1  0  0  0  0
 15 34  1  0  0  0  0
 16 19  2  0  0  0  0
 16 35  1  0  0  0  0
 17 36  1  0  0  0  0
 18 37  1  0  0  0  0
 19 38  1  0  0  0  0
 20 21  2  0  0  0  0
 20 22  1  0  0  0  0
 21 23  1  0  0  0  0
 21 39  1  0  0  0  0
 22 24  2  0  0  0  0
 22 40  1  0  0  0  0
 23 41  1  0  0  0  0
 24 42  1  0  0  0  0
 25 43  1  0  0  0  0
 25 44  1  0  0  0  0
 25 45  1  0  0  0  0
M  END
> <PUBCHEM_COMPOUND_CID>
49830489

> <PUBCHEM_COMPOUND_CANONICALIZED>
1

> <PUBCHEM_CACTVS_COMPLEXITY>
414

> <PUBCHEM_CACTVS_HBOND_ACCEPTOR>
3

> <PUBCHEM_CACTVS_HBOND_DONOR>
1

> <PUBCHEM_CACTVS_ROTATABLE_BOND>
5

> <PUBCHEM_CACTVS_SUBSKEYS>
AAADceB7MAAAAAAAAAAAAAAAAAAAAAAAAAA8YIAAAAAAAAAB0AAAHgAQAAAADCzBmgY+hpLIFACoAjF3VACCiCA1IiAI2KE+bNgMJnLEtZuEMShk1hHI6Ye4yPCOwAABAAAAAACAAAIAAAAAAAAAAAAAAA==

> <PUBCHEM_IUPAC_OPENEYE_NAME>
N-[1-(3-methoxyphenyl)ethyl]-4-(4-pyridyl)benzamide

> <PUBCHEM_IUPAC_CAS_NAME>
N-[1-(3-methoxyphenyl)ethyl]-4-pyridin-4-ylbenzamide

> <PUBCHEM_IUPAC_NAME_MARKUP>
<I>N</I>-[1-(3-methoxyphenyl)ethyl]-4-pyridin-4-ylbenzamide

> <PUBCHEM_IUPAC_NAME>
N-[1-(3-methoxyphenyl)ethyl]-4-pyridin-4-ylbenzamide

> <PUBCHEM_IUPAC_SYSTEMATIC_NAME>
N-[1-(3-methoxyphenyl)ethyl]-4-pyridin-4-yl-benzamide

> <PUBCHEM_IUPAC_TRADITIONAL_NAME>
N-[1-(3-methoxyphenyl)ethyl]-4-(4-pyridyl)benzamide

> <PUBCHEM_IUPAC_INCHI>
InChI=1S/C21H20N2O2/c1-15(19-4-3-5-20(14-19)25-2)23-21(24)18-8-6-16(7-9-18)17-10-12-22-13-11-17/h3-15H,1-2H3,(H,23,24)

> <PUBCHEM_IUPAC_INCHIKEY>
JRVSFZKYQCETAH-UHFFFAOYSA-N

> <PUBCHEM_XLOGP3_AA>
3.6

> <PUBCHEM_EXACT_MASS>
332.152477885

> <PUBCHEM_MOLECULAR_FORMULA>
C21H20N2O2

> <PUBCHEM_MOLECULAR_WEIGHT>
332.4

> <PUBCHEM_SMILES>
CC(C1=CC(=CC=C1)OC)NC(=O)C2=CC=C(C=C2)C3=CC=NC=C3

> <PUBCHEM_OPENEYE_CAN_SMILES>
CC(C1=CC(=CC=C1)OC)NC(=O)C2=CC=C(C=C2)C3=CC=NC=C3

> <PUBCHEM_OPENEYE_ISO_SMILES>
CC(C1=CC(=CC=C1)OC)NC(=O)C2=CC=C(C=C2)C3=CC=NC=C3

> <PUBCHEM_CACTVS_TPSA>
51.2

> <PUBCHEM_MONOISOTOPIC_WEIGHT>
332.152477885

> <PUBCHEM_TOTAL_CHARGE>
0

> <PUBCHEM_HEAVY_ATOM_COUNT>
25

> <PUBCHEM_ATOM_DEF_STEREO_COUNT>
0

> <PUBCHEM_ATOM_UDEF_STEREO_COUNT>
1

> <PUBCHEM_BOND_DEF_STEREO_COUNT>
0

> <PUBCHEM_BOND_UDEF_STEREO_COUNT>
0

> <PUBCHEM_ISOTOPIC_ATOM_COUNT>
0

> <PUBCHEM_COMPONENT_COUNT>
1

> <PUBCHEM_CACTVS_TAUTO_COUNT>
-1

> <PUBCHEM_COORDINATE_TYPE>
1
5
255

> <PUBCHEM_BONDANNOTATIONS>
11  15  8
11  16  8
12  17  8
13  18  8
13  19  8
14  17  8
15  18  8
16  19  8
20  21  8
20  22  8
21  23  8
22  24  8
4  23  8
4  24  8
5  7  3
6  8  8
6  9  8
8  12  8
9  14  8

$$$$
