884767
  -OEChem-03202501092D

 31 33  0     0  0  0  0  0  0999 V2000
    4.4865    0.9514    0.0000 S   0  0  0  0  0  0  0  0  0  0  0  0
    2.5896   -0.8087    0.0000 N   0  0  0  0  0  0  0  0  0  0  0  0
    4.2077   -0.8087    0.0000 N   0  0  0  0  0  0  0  0  0  0  0  0
    2.8987    0.1424    0.0000 N   0  0  0  0  0  0  0  0  0  0  0  0
    3.3987   -4.3965    0.0000 N   0  0  0  0  0  0  0  0  0  0  0  0
    4.6675    2.6739    0.0000 C   0  0  0  0  0  0  0  0  0  0  0  0
    4.0797    1.8649    0.0000 C   0  0  0  0  0  0  0  0  0  0  0  0
    3.3987   -1.3965    0.0000 C   0  0  0  0  0  0  0  0  0  0  0  0
    3.3987   -2.3965    0.0000 C   0  0  0  0  0  0  0  0  0  0  0  0
    3.8987    0.1424    0.0000 C   0  0  0  0  0  0  0  0  0  0  0  0
    5.6620    2.5694    0.0000 C   0  0  0  0  0  0  0  0  0  0  0  0
    4.2608    3.5875    0.0000 C   0  0  0  0  0  0  0  0  0  0  0  0
    2.5326   -2.8965    0.0000 C   0  0  0  0  0  0  0  0  0  0  0  0
    4.2647   -2.8965    0.0000 C   0  0  0  0  0  0  0  0  0  0  0  0
    6.2498    3.3784    0.0000 C   0  0  0  0  0  0  0  0  0  0  0  0
    4.8486    4.3965    0.0000 C   0  0  0  0  0  0  0  0  0  0  0  0
    5.8431    4.2920    0.0000 C   0  0  0  0  0  0  0  0  0  0  0  0
    2.5326   -3.8965    0.0000 C   0  0  0  0  0  0  0  0  0  0  0  0
    4.2647   -3.8965    0.0000 C   0  0  0  0  0  0  0  0  0  0  0  0
    3.6490    2.3109    0.0000 H   0  0  0  0  0  0  0  0  0  0  0  0
    3.5657    1.5182    0.0000 H   0  0  0  0  0  0  0  0  0  0  0  0
    5.9142    2.0030    0.0000 H   0  0  0  0  0  0  0  0  0  0  0  0
    3.6442    3.6523    0.0000 H   0  0  0  0  0  0  0  0  0  0  0  0
    2.0000   -1.0003    0.0000 H   0  0  0  0  0  0  0  0  0  0  0  0
    1.9957   -2.5865    0.0000 H   0  0  0  0  0  0  0  0  0  0  0  0
    4.8016   -2.5865    0.0000 H   0  0  0  0  0  0  0  0  0  0  0  0
    6.8664    3.3136    0.0000 H   0  0  0  0  0  0  0  0  0  0  0  0
    4.5964    4.9629    0.0000 H   0  0  0  0  0  0  0  0  0  0  0  0
    6.2075    4.7936    0.0000 H   0  0  0  0  0  0  0  0  0  0  0  0
    1.9957   -4.2065    0.0000 H   0  0  0  0  0  0  0  0  0  0  0  0
    4.8016   -4.2065    0.0000 H   0  0  0  0  0  0  0  0  0  0  0  0
  1  7  1  0  0  0  0
  1 10  1  0  0  0  0
  2  4  1  0  0  0  0
  2  8  1  0  0  0  0
  2 24  1  0  0  0  0
  3  8  2  0  0  0  0
  3 10  1  0  0  0  0
  4 10  2  0  0  0  0
  5 18  2  0  0  0  0
  5 19  1  0  0  0  0
  6  7  1  0  0  0  0
  6 11  2  0  0  0  0
  6 12  1  0  0  0  0
  7 20  1  0  0  0  0
  7 21  1  0  0  0  0
  8  9  1  0  0  0  0
  9 13  2  0  0  0  0
  9 14  1  0  0  0  0
 11 15  1  0  0  0  0
 11 22  1  0  0  0  0
 12 16  2  0  0  0  0
 12 23  1  0  0  0  0
 13 18  1  0  0  0  0
 13 25  1  0  0  0  0
 14 19  2  0  0  0  0
 14 26  1  0  0  0  0
 15 17  2  0  0  0  0
 15 27  1  0  0  0  0
 16 17  1  0  0  0  0
 16 28  1  0  0  0  0
 17 29  1  0  0  0  0
 18 30  1  0  0  0  0
 19 31  1  0  0  0  0
M  END
> <PUBCHEM_COMPOUND_CID>
884767

> <PUBCHEM_COMPOUND_CANONICALIZED>
1

> <PUBCHEM_CACTVS_COMPLEXITY>
264

> <PUBCHEM_CACTVS_HBOND_ACCEPTOR>
4

> <PUBCHEM_CACTVS_HBOND_DONOR>
1

> <PUBCHEM_CACTVS_ROTATABLE_BOND>
4

> <PUBCHEM_CACTVS_SUBSKEYS>
AAADccBzgABAAAAAAAAAAAAAAAAAAWAAAAA8QAAAAAAAAAAB8AAAHAQYAAAADADFWwS9kJZrEAiiAjJnZACS0CvxArAd+CA4ZJiIKOLgmZGEIAhgiALIyAcQgAAOAAAAAAAAAAAAAAAAAAAAAAAAAAAAAA==

> <PUBCHEM_IUPAC_OPENEYE_NAME>
4-(3-benzylsulfanyl-1H-1,2,4-triazol-5-yl)pyridine

> <PUBCHEM_IUPAC_CAS_NAME>
4-[3-(phenylmethylthio)-1H-1,2,4-triazol-5-yl]pyridine

> <PUBCHEM_IUPAC_NAME_MARKUP>
4-(3-benzylsulfanyl-1<I>H</I>-1,2,4-triazol-5-yl)pyridine

> <PUBCHEM_IUPAC_NAME>
4-(3-benzylsulfanyl-1H-1,2,4-triazol-5-yl)pyridine

> <PUBCHEM_IUPAC_SYSTEMATIC_NAME>
4-[3-(phenylmethylsulfanyl)-1H-1,2,4-triazol-5-yl]pyridine

> <PUBCHEM_IUPAC_TRADITIONAL_NAME>
4-[3-(benzylthio)-1H-1,2,4-triazol-5-yl]pyridine

> <PUBCHEM_IUPAC_INCHI>
InChI=1S/C14H12N4S/c1-2-4-11(5-3-1)10-19-14-16-13(17-18-14)12-6-8-15-9-7-12/h1-9H,10H2,(H,16,17,18)

> <PUBCHEM_IUPAC_INCHIKEY>
JTTNDRXETJGQKP-UHFFFAOYSA-N

> <PUBCHEM_XLOGP3_AA>
2.9

> <PUBCHEM_EXACT_MASS>
268.07826757

> <PUBCHEM_MOLECULAR_FORMULA>
C14H12N4S

> <PUBCHEM_MOLECULAR_WEIGHT>
268.34

> <PUBCHEM_SMILES>
C1=CC=C(C=C1)CSC2=NNC(=N2)C3=CC=NC=C3

> <PUBCHEM_OPENEYE_CAN_SMILES>
C1=CC=C(C=C1)CSC2=NNC(=N2)C3=CC=NC=C3

> <PUBCHEM_OPENEYE_ISO_SMILES>
C1=CC=C(C=C1)CSC2=NNC(=N2)C3=CC=NC=C3

> <PUBCHEM_CACTVS_TPSA>
79.8

> <PUBCHEM_MONOISOTOPIC_WEIGHT>
268.07826757

> <PUBCHEM_TOTAL_CHARGE>
0

> <PUBCHEM_HEAVY_ATOM_COUNT>
19

> <PUBCHEM_ATOM_DEF_STEREO_COUNT>
0

> <PUBCHEM_ATOM_UDEF_STEREO_COUNT>
0

> <PUBCHEM_BOND_DEF_STEREO_COUNT>
0

> <PUBCHEM_BOND_UDEF_STEREO_COUNT>
0

> <PUBCHEM_ISOTOPIC_ATOM_COUNT>
0

> <PUBCHEM_COMPONENT_COUNT>
1

> <PUBCHEM_CACTVS_TAUTO_COUNT>
-1

> <PUBCHEM_COORDINATE_TYPE>
1
5
255

> <PUBCHEM_BONDANNOTATIONS>
11  15  8
12  16  8
13  18  8
14  19  8
15  17  8
16  17  8
2  4  8
2  8  8
3  10  8
3  8  8
4  10  8
5  18  8
5  19  8
6  11  8
6  12  8
9  13  8
9  14  8

$$$$
