49830306
  -OEChem-03202502482D

 43 45  0     0  0  0  0  0  0999 V2000
    3.9639    1.9448    0.0000 F   0  0  0  0  0  0  0  0  0  0  0  0
    7.2566    0.8687    0.0000 N   0  0  0  0  0  0  0  0  0  0  0  0
    9.8349    3.1821    0.0000 N   0  0  0  0  0  0  0  0  0  0  0  0
    5.6103    1.4067    0.0000 N   0  0  0  0  0  0  0  0  0  0  0  0
    4.6783   -3.0543    0.0000 N   0  0  0  0  0  0  0  0  0  0  0  0
    2.8660   -3.2496    0.0000 N   0  0  0  0  0  0  0  0  0  0  0  0
    8.5458    2.0254    0.0000 C   0  0  0  0  0  0  0  0  0  0  0  0
    7.5673    1.8192    0.0000 C   0  0  0  0  0  0  0  0  0  0  0  0
    9.5243    2.2316    0.0000 C   0  0  0  0  0  0  0  0  0  0  0  0
    8.3396    3.0039    0.0000 C   0  0  0  0  0  0  0  0  0  0  0  0
    8.7520    1.0469    0.0000 C   0  0  0  0  0  0  0  0  0  0  0  0
    6.2781    0.6624    0.0000 C   0  0  0  0  0  0  0  0  0  0  0  0
    4.9889   -0.4943    0.0000 C   0  0  0  0  0  0  0  0  0  0  0  0
    4.6783   -1.4448    0.0000 C   0  0  0  0  0  0  0  0  0  0  0  0
    5.9674   -0.2881    0.0000 C   0  0  0  0  0  0  0  0  0  0  0  0
    3.7320   -1.7496    0.0000 C   0  0  0  0  0  0  0  0  0  0  0  0
    3.7320   -2.7496    0.0000 C   0  0  0  0  0  0  0  0  0  0  0  0
    5.2619   -2.2496    0.0000 C   0  0  0  0  0  0  0  0  0  0  0  0
    4.3211    0.2500    0.0000 C   0  0  0  0  0  0  0  0  0  0  0  0
    4.6318    1.2005    0.0000 C   0  0  0  0  0  0  0  0  0  0  0  0
    2.8660   -1.2496    0.0000 C   0  0  0  0  0  0  0  0  0  0  0  0
    2.0000   -1.7496    0.0000 C   0  0  0  0  0  0  0  0  0  0  0  0
    2.0000   -2.7496    0.0000 C   0  0  0  0  0  0  0  0  0  0  0  0
    7.5467    2.4388    0.0000 H   0  0  0  0  0  0  0  0  0  0  0  0
    6.9534    1.9065    0.0000 H   0  0  0  0  0  0  0  0  0  0  0  0
    9.5448    1.6120    0.0000 H   0  0  0  0  0  0  0  0  0  0  0  0
   10.1381    2.1443    0.0000 H   0  0  0  0  0  0  0  0  0  0  0  0
    8.9462    3.1318    0.0000 H   0  0  0  0  0  0  0  0  0  0  0  0
    8.2117    3.6106    0.0000 H   0  0  0  0  0  0  0  0  0  0  0  0
    7.7329    2.8761    0.0000 H   0  0  0  0  0  0  0  0  0  0  0  0
    8.1453    0.9190    0.0000 H   0  0  0  0  0  0  0  0  0  0  0  0
    8.8798    0.4402    0.0000 H   0  0  0  0  0  0  0  0  0  0  0  0
    9.3587    1.1748    0.0000 H   0  0  0  0  0  0  0  0  0  0  0  0
    7.6707    0.4072    0.0000 H   0  0  0  0  0  0  0  0  0  0  0  0
   10.4416    3.3100    0.0000 H   0  0  0  0  0  0  0  0  0  0  0  0
    9.4209    3.6436    0.0000 H   0  0  0  0  0  0  0  0  0  0  0  0
    6.3815   -0.7495    0.0000 H   0  0  0  0  0  0  0  0  0  0  0  0
    5.8819   -2.2496    0.0000 H   0  0  0  0  0  0  0  0  0  0  0  0
    3.7144    0.1221    0.0000 H   0  0  0  0  0  0  0  0  0  0  0  0
    4.8709   -3.6436    0.0000 H   0  0  0  0  0  0  0  0  0  0  0  0
    2.8660   -0.6296    0.0000 H   0  0  0  0  0  0  0  0  0  0  0  0
    1.4631   -1.4396    0.0000 H   0  0  0  0  0  0  0  0  0  0  0  0
    1.4631   -3.0596    0.0000 H   0  0  0  0  0  0  0  0  0  0  0  0
  1 20  1  0  0  0  0
  2  8  1  0  0  0  0
  2 12  1  0  0  0  0
  2 34  1  0  0  0  0
  3  9  1  0  0  0  0
  3 35  1  0  0  0  0
  3 36  1  0  0  0  0
  4 12  2  0  0  0  0
  4 20  1  0  0  0  0
  5 17  1  0  0  0  0
  5 18  1  0  0  0  0
  5 40  1  0  0  0  0
  6 17  1  0  0  0  0
  6 23  2  0  0  0  0
  7  8  1  0  0  0  0
  7  9  1  0  0  0  0
  7 10  1  0  0  0  0
  7 11  1  0  0  0  0
  8 24  1  0  0  0  0
  8 25  1  0  0  0  0
  9 26  1  0  0  0  0
  9 27  1  0  0  0  0
 10 28  1  0  0  0  0
 10 29  1  0  0  0  0
 10 30  1  0  0  0  0
 11 31  1  0  0  0  0
 11 32  1  0  0  0  0
 11 33  1  0  0  0  0
 12 15  1  0  0  0  0
 13 14  1  0  0  0  0
 13 15  2  0  0  0  0
 13 19  1  0  0  0  0
 14 16  1  0  0  0  0
 14 18  2  0  0  0  0
 15 37  1  0  0  0  0
 16 17  2  0  0  0  0
 16 21  1  0  0  0  0
 18 38  1  0  0  0  0
 19 20  2  0  0  0  0
 19 39  1  0  0  0  0
 21 22  2  0  0  0  0
 21 41  1  0  0  0  0
 22 23  1  0  0  0  0
 22 42  1  0  0  0  0
 23 43  1  0  0  0  0
M  END
> <PUBCHEM_COMPOUND_CID>
49830306

> <PUBCHEM_COMPOUND_CANONICALIZED>
1

> <PUBCHEM_CACTVS_COMPLEXITY>
391

> <PUBCHEM_CACTVS_HBOND_ACCEPTOR>
5

> <PUBCHEM_CACTVS_HBOND_DONOR>
3

> <PUBCHEM_CACTVS_ROTATABLE_BOND>
5

> <PUBCHEM_CACTVS_SUBSKEYS>
AAADceB7gQAAAAAAAAAAAAAAAAAAAWAAAAAsWAAAAAAAAFgB/gAAHQAQAAAADgDBGww/sN7JkACgAjJnZACCgCmxAqAJ2aA4ZJiIKOLA2ZGEIAhokALIyCcQgMAOgAAAAAAAAAAAAAAAAAAAAAAAAAAAAA==

> <PUBCHEM_IUPAC_OPENEYE_NAME>
N'-[6-fluoro-4-(1H-pyrrolo[2,3-b]pyridin-3-yl)-2-pyridyl]-2,2-dimethyl-propane-1,3-diamine

> <PUBCHEM_IUPAC_CAS_NAME>
N'-[6-fluoro-4-(1H-pyrrolo[2,3-b]pyridin-3-yl)-2-pyridinyl]-2,2-dimethylpropane-1,3-diamine

> <PUBCHEM_IUPAC_NAME_MARKUP>
<I>N</I>&apos;-[6-fluoro-4-(1<I>H</I>-pyrrolo[2,3-b]pyridin-3-yl)pyridin-2-yl]-2,2-dimethylpropane-1,3-diamine

> <PUBCHEM_IUPAC_NAME>
N'-[6-fluoro-4-(1H-pyrrolo[2,3-b]pyridin-3-yl)pyridin-2-yl]-2,2-dimethylpropane-1,3-diamine

> <PUBCHEM_IUPAC_SYSTEMATIC_NAME>
N'-[6-fluoranyl-4-(1H-pyrrolo[2,3-b]pyridin-3-yl)pyridin-2-yl]-2,2-dimethyl-propane-1,3-diamine

> <PUBCHEM_IUPAC_TRADITIONAL_NAME>
(3-amino-2,2-dimethyl-propyl)-[6-fluoro-4-(1H-pyrrolo[2,3-b]pyridin-3-yl)-2-pyridyl]amine

> <PUBCHEM_IUPAC_INCHI>
InChI=1S/C17H20FN5/c1-17(2,9-19)10-22-15-7-11(6-14(18)23-15)13-8-21-16-12(13)4-3-5-20-16/h3-8H,9-10,19H2,1-2H3,(H,20,21)(H,22,23)

> <PUBCHEM_IUPAC_INCHIKEY>
XXSPHNFKLDJDAK-UHFFFAOYSA-N

> <PUBCHEM_XLOGP3_AA>
3.4

> <PUBCHEM_EXACT_MASS>
313.17027382

> <PUBCHEM_MOLECULAR_FORMULA>
C17H20FN5

> <PUBCHEM_MOLECULAR_WEIGHT>
313.4

> <PUBCHEM_SMILES>
CC(C)(CN)CNC1=NC(=CC(=C1)C2=CNC3=C2C=CC=N3)F

> <PUBCHEM_OPENEYE_CAN_SMILES>
CC(C)(CN)CNC1=NC(=CC(=C1)C2=CNC3=C2C=CC=N3)F

> <PUBCHEM_OPENEYE_ISO_SMILES>
CC(C)(CN)CNC1=NC(=CC(=C1)C2=CNC3=C2C=CC=N3)F

> <PUBCHEM_CACTVS_TPSA>
79.6

> <PUBCHEM_MONOISOTOPIC_WEIGHT>
313.17027382

> <PUBCHEM_TOTAL_CHARGE>
0

> <PUBCHEM_HEAVY_ATOM_COUNT>
23

> <PUBCHEM_ATOM_DEF_STEREO_COUNT>
0

> <PUBCHEM_ATOM_UDEF_STEREO_COUNT>
0

> <PUBCHEM_BOND_DEF_STEREO_COUNT>
0

> <PUBCHEM_BOND_UDEF_STEREO_COUNT>
0

> <PUBCHEM_ISOTOPIC_ATOM_COUNT>
0

> <PUBCHEM_COMPONENT_COUNT>
1

> <PUBCHEM_CACTVS_TAUTO_COUNT>
-1

> <PUBCHEM_COORDINATE_TYPE>
1
5
255

> <PUBCHEM_BONDANNOTATIONS>
12  15  8
13  15  8
13  19  8
14  16  8
14  18  8
16  17  8
16  21  8
19  20  8
21  22  8
22  23  8
4  12  8
4  20  8
5  17  8
5  18  8
6  17  8
6  23  8

$$$$
