24905330
  -OEChem-03192523562D

 45 47  0     0  0  0  0  0  0999 V2000
    7.2566    1.7955    0.0000 O   0  0  0  0  0  0  0  0  0  0  0  0
    5.9209    3.2841    0.0000 O   0  0  0  0  0  0  0  0  0  0  0  0
    4.6783   -2.1274    0.0000 N   0  0  0  0  0  0  0  0  0  0  0  0
    5.2619   -1.3227    0.0000 N   0  0  0  0  0  0  0  0  0  0  0  0
    2.8660   -2.3227    0.0000 N   0  0  0  0  0  0  0  0  0  0  0  0
    2.0000   -0.8227    0.0000 N   0  0  0  0  0  0  0  0  0  0  0  0
    2.8660    0.6773    0.0000 N   0  0  0  0  0  0  0  0  0  0  0  0
    4.9889   -3.0779    0.0000 C   0  0  0  0  0  0  0  0  0  0  0  0
    3.7320   -1.8227    0.0000 C   0  0  0  0  0  0  0  0  0  0  0  0
    5.2996   -4.0284    0.0000 C   0  0  0  0  0  0  0  0  0  0  0  0
    5.9394   -2.7673    0.0000 C   0  0  0  0  0  0  0  0  0  0  0  0
    4.0384   -3.3886    0.0000 C   0  0  0  0  0  0  0  0  0  0  0  0
    3.7320   -0.8227    0.0000 C   0  0  0  0  0  0  0  0  0  0  0  0
    4.6783   -0.5179    0.0000 C   0  0  0  0  0  0  0  0  0  0  0  0
    4.9889    0.4326    0.0000 C   0  0  0  0  0  0  0  0  0  0  0  0
    2.8660   -0.3227    0.0000 C   0  0  0  0  0  0  0  0  0  0  0  0
    5.9674    0.6388    0.0000 C   0  0  0  0  0  0  0  0  0  0  0  0
    4.3211    1.1769    0.0000 C   0  0  0  0  0  0  0  0  0  0  0  0
    2.0000   -1.8227    0.0000 C   0  0  0  0  0  0  0  0  0  0  0  0
    6.2781    1.5893    0.0000 C   0  0  0  0  0  0  0  0  0  0  0  0
    4.6318    2.1274    0.0000 C   0  0  0  0  0  0  0  0  0  0  0  0
    5.6103    2.3336    0.0000 C   0  0  0  0  0  0  0  0  0  0  0  0
    7.9244    1.0512    0.0000 C   0  0  0  0  0  0  0  0  0  0  0  0
    5.2531    4.0284    0.0000 C   0  0  0  0  0  0  0  0  0  0  0  0
    4.7103   -4.2211    0.0000 H   0  0  0  0  0  0  0  0  0  0  0  0
    5.4922   -4.6178    0.0000 H   0  0  0  0  0  0  0  0  0  0  0  0
    5.8889   -3.8358    0.0000 H   0  0  0  0  0  0  0  0  0  0  0  0
    6.1321   -3.3566    0.0000 H   0  0  0  0  0  0  0  0  0  0  0  0
    6.5288   -2.5746    0.0000 H   0  0  0  0  0  0  0  0  0  0  0  0
    5.7468   -2.1779    0.0000 H   0  0  0  0  0  0  0  0  0  0  0  0
    3.8458   -2.7993    0.0000 H   0  0  0  0  0  0  0  0  0  0  0  0
    3.4491   -3.5812    0.0000 H   0  0  0  0  0  0  0  0  0  0  0  0
    4.2310   -3.9779    0.0000 H   0  0  0  0  0  0  0  0  0  0  0  0
    6.3815    0.1773    0.0000 H   0  0  0  0  0  0  0  0  0  0  0  0
    3.7144    1.0490    0.0000 H   0  0  0  0  0  0  0  0  0  0  0  0
    1.4631   -2.1327    0.0000 H   0  0  0  0  0  0  0  0  0  0  0  0
    4.2177    2.5889    0.0000 H   0  0  0  0  0  0  0  0  0  0  0  0
    2.3291    0.9873    0.0000 H   0  0  0  0  0  0  0  0  0  0  0  0
    3.4030    0.9873    0.0000 H   0  0  0  0  0  0  0  0  0  0  0  0
    7.4630    0.6372    0.0000 H   0  0  0  0  0  0  0  0  0  0  0  0
    8.3385    0.5898    0.0000 H   0  0  0  0  0  0  0  0  0  0  0  0
    8.3859    1.4653    0.0000 H   0  0  0  0  0  0  0  0  0  0  0  0
    5.7145    4.4425    0.0000 H   0  0  0  0  0  0  0  0  0  0  0  0
    4.8390    4.4899    0.0000 H   0  0  0  0  0  0  0  0  0  0  0  0
    4.7916    3.6144    0.0000 H   0  0  0  0  0  0  0  0  0  0  0  0
  1 20  1  0  0  0  0
  1 23  1  0  0  0  0
  2 22  1  0  0  0  0
  2 24  1  0  0  0  0
  3  4  1  0  0  0  0
  3  8  1  0  0  0  0
  3  9  1  0  0  0  0
  4 14  2  0  0  0  0
  5  9  2  0  0  0  0
  5 19  1  0  0  0  0
  6 16  1  0  0  0  0
  6 19  2  0  0  0  0
  7 16  1  0  0  0  0
  7 38  1  0  0  0  0
  7 39  1  0  0  0  0
  8 10  1  0  0  0  0
  8 11  1  0  0  0  0
  8 12  1  0  0  0  0
  9 13  1  0  0  0  0
 10 25  1  0  0  0  0
 10 26  1  0  0  0  0
 10 27  1  0  0  0  0
 11 28  1  0  0  0  0
 11 29  1  0  0  0  0
 11 30  1  0  0  0  0
 12 31  1  0  0  0  0
 12 32  1  0  0  0  0
 12 33  1  0  0  0  0
 13 14  1  0  0  0  0
 13 16  2  0  0  0  0
 14 15  1  0  0  0  0
 15 17  2  0  0  0  0
 15 18  1  0  0  0  0
 17 20  1  0  0  0  0
 17 34  1  0  0  0  0
 18 21  2  0  0  0  0
 18 35  1  0  0  0  0
 19 36  1  0  0  0  0
 20 22  2  0  0  0  0
 21 22  1  0  0  0  0
 21 37  1  0  0  0  0
 23 40  1  0  0  0  0
 23 41  1  0  0  0  0
 23 42  1  0  0  0  0
 24 43  1  0  0  0  0
 24 44  1  0  0  0  0
 24 45  1  0  0  0  0
M  END
> <PUBCHEM_COMPOUND_CID>
24905330

> <PUBCHEM_COMPOUND_CANONICALIZED>
1

> <PUBCHEM_CACTVS_COMPLEXITY>
430

> <PUBCHEM_CACTVS_HBOND_ACCEPTOR>
6

> <PUBCHEM_CACTVS_HBOND_DONOR>
1

> <PUBCHEM_CACTVS_ROTATABLE_BOND>
4

> <PUBCHEM_CACTVS_SUBSKEYS>
AAADceB7sAAAAAAAAAAAAAAAAAAAAWAAAAA8QAAAAAAAAFgB/AAAHgAYAAAADIyBnwY3tt5IFACiAyZjZACSjCsxIKAd2CAuzJiNLqLE+duEtCpsyBPK6Cew0PEOIAABAAAAQABAAAIAAACAAAAAAAAAAA==

> <PUBCHEM_IUPAC_OPENEYE_NAME>
1-tert-butyl-3-(3,4-dimethoxyphenyl)pyrazolo[3,4-d]pyrimidin-4-amine

> <PUBCHEM_IUPAC_CAS_NAME>
1-tert-butyl-3-(3,4-dimethoxyphenyl)-4-pyrazolo[3,4-d]pyrimidinamine

> <PUBCHEM_IUPAC_NAME_MARKUP>
1-<I>tert</I>-butyl-3-(3,4-dimethoxyphenyl)pyrazolo[3,4-d]pyrimidin-4-amine

> <PUBCHEM_IUPAC_NAME>
1-tert-butyl-3-(3,4-dimethoxyphenyl)pyrazolo[3,4-d]pyrimidin-4-amine

> <PUBCHEM_IUPAC_SYSTEMATIC_NAME>
1-tert-butyl-3-(3,4-dimethoxyphenyl)pyrazolo[3,4-d]pyrimidin-4-amine

> <PUBCHEM_IUPAC_TRADITIONAL_NAME>
[1-tert-butyl-3-(3,4-dimethoxyphenyl)pyrazolo[3,4-d]pyrimidin-4-yl]amine

> <PUBCHEM_IUPAC_INCHI>
InChI=1S/C17H21N5O2/c1-17(2,3)22-16-13(15(18)19-9-20-16)14(21-22)10-6-7-11(23-4)12(8-10)24-5/h6-9H,1-5H3,(H2,18,19,20)

> <PUBCHEM_IUPAC_INCHIKEY>
WLLDKVYCGDHDLF-UHFFFAOYSA-N

> <PUBCHEM_XLOGP3_AA>
2.3

> <PUBCHEM_EXACT_MASS>
327.16952493

> <PUBCHEM_MOLECULAR_FORMULA>
C17H21N5O2

> <PUBCHEM_MOLECULAR_WEIGHT>
327.4

> <PUBCHEM_SMILES>
CC(C)(C)N1C2=NC=NC(=C2C(=N1)C3=CC(=C(C=C3)OC)OC)N

> <PUBCHEM_OPENEYE_CAN_SMILES>
CC(C)(C)N1C2=NC=NC(=C2C(=N1)C3=CC(=C(C=C3)OC)OC)N

> <PUBCHEM_OPENEYE_ISO_SMILES>
CC(C)(C)N1C2=NC=NC(=C2C(=N1)C3=CC(=C(C=C3)OC)OC)N

> <PUBCHEM_CACTVS_TPSA>
88.1

> <PUBCHEM_MONOISOTOPIC_WEIGHT>
327.16952493

> <PUBCHEM_TOTAL_CHARGE>
0

> <PUBCHEM_HEAVY_ATOM_COUNT>
24

> <PUBCHEM_ATOM_DEF_STEREO_COUNT>
0

> <PUBCHEM_ATOM_UDEF_STEREO_COUNT>
0

> <PUBCHEM_BOND_DEF_STEREO_COUNT>
0

> <PUBCHEM_BOND_UDEF_STEREO_COUNT>
0

> <PUBCHEM_ISOTOPIC_ATOM_COUNT>
0

> <PUBCHEM_COMPONENT_COUNT>
1

> <PUBCHEM_CACTVS_TAUTO_COUNT>
-1

> <PUBCHEM_COORDINATE_TYPE>
1
5
255

> <PUBCHEM_BONDANNOTATIONS>
13  14  8
13  16  8
15  17  8
15  18  8
17  20  8
18  21  8
20  22  8
21  22  8
3  4  8
3  9  8
4  14  8
5  19  8
5  9  8
6  16  8
6  19  8
9  13  8

$$$$
