46929748
  -OEChem-03202500072D

 61 65  0     0  0  0  0  0  0999 V2000
    7.1962    2.0000    0.0000 O   0  0  0  0  0  0  0  0  0  0  0  0
    5.4641   -2.0000    0.0000 O   0  0  0  0  0  0  0  0  0  0  0  0
    4.5981   -3.5000    0.0000 N   0  0  0  0  0  0  0  0  0  0  0  0
    7.1962   -2.0000    0.0000 N   0  0  0  0  0  0  0  0  0  0  0  0
    8.9282    2.0000    0.0000 N   0  0  0  0  0  0  0  0  0  0  0  0
    6.3301    3.5000    0.0000 N   0  0  0  0  0  0  0  0  0  0  0  0
    5.4641    5.0000    0.0000 N   0  0  0  0  0  0  0  0  0  0  0  0
    4.5981    3.5000    0.0000 N   0  0  0  0  0  0  0  0  0  0  0  0
    6.3301   -3.5000    0.0000 C   0  0  0  0  0  0  0  0  0  0  0  0
    5.4641   -4.0000    0.0000 C   0  0  0  0  0  0  0  0  0  0  0  0
    7.1962   -1.0000    0.0000 C   0  0  0  0  0  0  0  0  0  0  0  0
    6.3301   -2.5000    0.0000 C   0  0  0  0  0  0  0  0  0  0  0  0
    7.1962   -4.0000    0.0000 C   0  0  0  0  0  0  0  0  0  0  0  0
    5.4641   -5.0000    0.0000 C   0  0  0  0  0  0  0  0  0  0  0  0
    3.7320   -4.0000    0.0000 C   0  0  0  0  0  0  0  0  0  0  0  0
    7.1962    1.0000    0.0000 C   0  0  0  0  0  0  0  0  0  0  0  0
    8.0622   -0.5000    0.0000 C   0  0  0  0  0  0  0  0  0  0  0  0
    6.3301   -0.5000    0.0000 C   0  0  0  0  0  0  0  0  0  0  0  0
    8.0622    3.5000    0.0000 C   0  0  0  0  0  0  0  0  0  0  0  0
    7.1962   -5.0000    0.0000 C   0  0  0  0  0  0  0  0  0  0  0  0
    6.3301   -5.5000    0.0000 C   0  0  0  0  0  0  0  0  0  0  0  0
    8.0622    0.5000    0.0000 C   0  0  0  0  0  0  0  0  0  0  0  0
    6.3301    0.5000    0.0000 C   0  0  0  0  0  0  0  0  0  0  0  0
    8.0622    2.5000    0.0000 C   0  0  0  0  0  0  0  0  0  0  0  0
    7.1962    4.0000    0.0000 C   0  0  0  0  0  0  0  0  0  0  0  0
    3.7320   -5.0000    0.0000 C   0  0  0  0  0  0  0  0  0  0  0  0
    2.8660   -3.5000    0.0000 C   0  0  0  0  0  0  0  0  0  0  0  0
    8.9282    4.0000    0.0000 C   0  0  0  0  0  0  0  0  0  0  0  0
    2.8660   -5.5000    0.0000 C   0  0  0  0  0  0  0  0  0  0  0  0
    2.0000   -4.0000    0.0000 C   0  0  0  0  0  0  0  0  0  0  0  0
    7.1962    5.0000    0.0000 C   0  0  0  0  0  0  0  0  0  0  0  0
    9.7942    3.5000    0.0000 C   0  0  0  0  0  0  0  0  0  0  0  0
    2.0000   -5.0000    0.0000 C   0  0  0  0  0  0  0  0  0  0  0  0
    9.7942    2.5000    0.0000 C   0  0  0  0  0  0  0  0  0  0  0  0
    5.4641    4.0000    0.0000 C   0  0  0  0  0  0  0  0  0  0  0  0
    6.3301    5.5000    0.0000 C   0  0  0  0  0  0  0  0  0  0  0  0
    3.7320    4.0000    0.0000 C   0  0  0  0  0  0  0  0  0  0  0  0
    4.5981   -2.8800    0.0000 H   0  0  0  0  0  0  0  0  0  0  0  0
    7.7331   -3.6900    0.0000 H   0  0  0  0  0  0  0  0  0  0  0  0
    4.9272   -5.3100    0.0000 H   0  0  0  0  0  0  0  0  0  0  0  0
    7.7331   -2.3100    0.0000 H   0  0  0  0  0  0  0  0  0  0  0  0
    8.5991   -0.8100    0.0000 H   0  0  0  0  0  0  0  0  0  0  0  0
    5.7932   -0.8100    0.0000 H   0  0  0  0  0  0  0  0  0  0  0  0
    7.7331   -5.3100    0.0000 H   0  0  0  0  0  0  0  0  0  0  0  0
    6.3301   -6.1200    0.0000 H   0  0  0  0  0  0  0  0  0  0  0  0
    8.5991    0.8100    0.0000 H   0  0  0  0  0  0  0  0  0  0  0  0
    5.7932    0.8100    0.0000 H   0  0  0  0  0  0  0  0  0  0  0  0
    4.2690   -5.3100    0.0000 H   0  0  0  0  0  0  0  0  0  0  0  0
    2.8660   -2.8800    0.0000 H   0  0  0  0  0  0  0  0  0  0  0  0
    8.9282    4.6200    0.0000 H   0  0  0  0  0  0  0  0  0  0  0  0
    2.8660   -6.1200    0.0000 H   0  0  0  0  0  0  0  0  0  0  0  0
    1.4631   -3.6900    0.0000 H   0  0  0  0  0  0  0  0  0  0  0  0
    7.7331    5.3100    0.0000 H   0  0  0  0  0  0  0  0  0  0  0  0
   10.3312    3.8100    0.0000 H   0  0  0  0  0  0  0  0  0  0  0  0
    1.4631   -5.3100    0.0000 H   0  0  0  0  0  0  0  0  0  0  0  0
   10.3312    2.1900    0.0000 H   0  0  0  0  0  0  0  0  0  0  0  0
    6.3301    6.1200    0.0000 H   0  0  0  0  0  0  0  0  0  0  0  0
    4.5981    2.8800    0.0000 H   0  0  0  0  0  0  0  0  0  0  0  0
    4.0420    4.5369    0.0000 H   0  0  0  0  0  0  0  0  0  0  0  0
    3.1951    4.3100    0.0000 H   0  0  0  0  0  0  0  0  0  0  0  0
    3.4220    3.4631    0.0000 H   0  0  0  0  0  0  0  0  0  0  0  0
  1 16  1  0  0  0  0
  1 24  1  0  0  0  0
  2 12  2  0  0  0  0
  3 10  1  0  0  0  0
  3 15  1  0  0  0  0
  3 38  1  0  0  0  0
  4 11  1  0  0  0  0
  4 12  1  0  0  0  0
  4 41  1  0  0  0  0
  5 24  1  0  0  0  0
  5 34  2  0  0  0  0
  6 25  2  0  0  0  0
  6 35  1  0  0  0  0
  7 35  2  0  0  0  0
  7 36  1  0  0  0  0
  8 35  1  0  0  0  0
  8 37  1  0  0  0  0
  8 58  1  0  0  0  0
  9 10  1  0  0  0  0
  9 12  1  0  0  0  0
  9 13  2  0  0  0  0
 10 14  2  0  0  0  0
 11 17  2  0  0  0  0
 11 18  1  0  0  0  0
 13 20  1  0  0  0  0
 13 39  1  0  0  0  0
 14 21  1  0  0  0  0
 14 40  1  0  0  0  0
 15 26  2  0  0  0  0
 15 27  1  0  0  0  0
 16 22  2  0  0  0  0
 16 23  1  0  0  0  0
 17 22  1  0  0  0  0
 17 42  1  0  0  0  0
 18 23  2  0  0  0  0
 18 43  1  0  0  0  0
 19 24  2  0  0  0  0
 19 25  1  0  0  0  0
 19 28  1  0  0  0  0
 20 21  2  0  0  0  0
 20 44  1  0  0  0  0
 21 45  1  0  0  0  0
 22 46  1  0  0  0  0
 23 47  1  0  0  0  0
 25 31  1  0  0  0  0
 26 29  1  0  0  0  0
 26 48  1  0  0  0  0
 27 30  2  0  0  0  0
 27 49  1  0  0  0  0
 28 32  2  0  0  0  0
 28 50  1  0  0  0  0
 29 33  2  0  0  0  0
 29 51  1  0  0  0  0
 30 33  1  0  0  0  0
 30 52  1  0  0  0  0
 31 36  2  0  0  0  0
 31 53  1  0  0  0  0
 32 34  1  0  0  0  0
 32 54  1  0  0  0  0
 33 55  1  0  0  0  0
 34 56  1  0  0  0  0
 36 57  1  0  0  0  0
 37 59  1  0  0  0  0
 37 60  1  0  0  0  0
 37 61  1  0  0  0  0
M  END
> <PUBCHEM_COMPOUND_CID>
46929748

> <PUBCHEM_COMPOUND_CANONICALIZED>
1

> <PUBCHEM_CACTVS_COMPLEXITY>
696

> <PUBCHEM_CACTVS_HBOND_ACCEPTOR>
7

> <PUBCHEM_CACTVS_HBOND_DONOR>
3

> <PUBCHEM_CACTVS_ROTATABLE_BOND>
8

> <PUBCHEM_CACTVS_SUBSKEYS>
AAADceB7sAAAAAAAAAAAAAAAAAAAAAAAAAA8eMECAAAAAAAB9AAAHgAQAAAADAzBngQ/1pbIFACoAzV3dACCiCk1IqAJ2KE+bNiMLvrE/duOPaju1BPI6ee42AKOAEAAAAACAAAAgAAAAAQAAAAAAAAAAA==

> <PUBCHEM_IUPAC_OPENEYE_NAME>
2-anilino-N-[4-[[3-[2-(methylamino)pyrimidin-4-yl]-2-pyridyl]oxy]phenyl]benzamide

> <PUBCHEM_IUPAC_CAS_NAME>
2-anilino-N-[4-[[3-[2-(methylamino)-4-pyrimidinyl]-2-pyridinyl]oxy]phenyl]benzamide

> <PUBCHEM_IUPAC_NAME_MARKUP>
2-anilino-<I>N</I>-[4-[3-[2-(methylamino)pyrimidin-4-yl]pyridin-2-yl]oxyphenyl]benzamide

> <PUBCHEM_IUPAC_NAME>
2-anilino-N-[4-[3-[2-(methylamino)pyrimidin-4-yl]pyridin-2-yl]oxyphenyl]benzamide

> <PUBCHEM_IUPAC_SYSTEMATIC_NAME>
N-[4-[3-[2-(methylamino)pyrimidin-4-yl]pyridin-2-yl]oxyphenyl]-2-phenylazanyl-benzamide

> <PUBCHEM_IUPAC_TRADITIONAL_NAME>
2-anilino-N-[4-[[3-[2-(methylamino)pyrimidin-4-yl]-2-pyridyl]oxy]phenyl]benzamide

> <PUBCHEM_IUPAC_INCHI>
InChI=1S/C29H24N6O2/c1-30-29-32-19-17-26(35-29)24-11-7-18-31-28(24)37-22-15-13-21(14-16-22)34-27(36)23-10-5-6-12-25(23)33-20-8-3-2-4-9-20/h2-19,33H,1H3,(H,34,36)(H,30,32,35)

> <PUBCHEM_IUPAC_INCHIKEY>
YRIZEPGWRQGUBO-UHFFFAOYSA-N

> <PUBCHEM_XLOGP3_AA>
5.9

> <PUBCHEM_EXACT_MASS>
488.19607403

> <PUBCHEM_MOLECULAR_FORMULA>
C29H24N6O2

> <PUBCHEM_MOLECULAR_WEIGHT>
488.5

> <PUBCHEM_SMILES>
CNC1=NC=CC(=N1)C2=C(N=CC=C2)OC3=CC=C(C=C3)NC(=O)C4=CC=CC=C4NC5=CC=CC=C5

> <PUBCHEM_OPENEYE_CAN_SMILES>
CNC1=NC=CC(=N1)C2=C(N=CC=C2)OC3=CC=C(C=C3)NC(=O)C4=CC=CC=C4NC5=CC=CC=C5

> <PUBCHEM_OPENEYE_ISO_SMILES>
CNC1=NC=CC(=N1)C2=C(N=CC=C2)OC3=CC=C(C=C3)NC(=O)C4=CC=CC=C4NC5=CC=CC=C5

> <PUBCHEM_CACTVS_TPSA>
101

> <PUBCHEM_MONOISOTOPIC_WEIGHT>
488.19607403

> <PUBCHEM_TOTAL_CHARGE>
0

> <PUBCHEM_HEAVY_ATOM_COUNT>
37

> <PUBCHEM_ATOM_DEF_STEREO_COUNT>
0

> <PUBCHEM_ATOM_UDEF_STEREO_COUNT>
0

> <PUBCHEM_BOND_DEF_STEREO_COUNT>
0

> <PUBCHEM_BOND_UDEF_STEREO_COUNT>
0

> <PUBCHEM_ISOTOPIC_ATOM_COUNT>
0

> <PUBCHEM_COMPONENT_COUNT>
1

> <PUBCHEM_CACTVS_TAUTO_COUNT>
-1

> <PUBCHEM_COORDINATE_TYPE>
1
5
255

> <PUBCHEM_BONDANNOTATIONS>
10  14  8
11  17  8
11  18  8
13  20  8
14  21  8
15  26  8
15  27  8
16  22  8
16  23  8
17  22  8
18  23  8
19  24  8
19  28  8
20  21  8
25  31  8
26  29  8
27  30  8
28  32  8
29  33  8
30  33  8
31  36  8
32  34  8
5  24  8
5  34  8
6  25  8
6  35  8
7  35  8
7  36  8
9  10  8
9  13  8

$$$$
