17748275
  -OEChem-03202505032D

 58 61  0     0  0  0  0  0  0999 V2000
    3.2320   -3.1340    0.0000 F   0  0  0  0  0  0  0  0  0  0  0  0
    4.2320   -4.8660    0.0000 F   0  0  0  0  0  0  0  0  0  0  0  0
    2.0000   -4.0000    0.0000 F   0  0  0  0  0  0  0  0  0  0  0  0
    2.8660   -5.5000    0.0000 F   0  0  0  0  0  0  0  0  0  0  0  0
    9.7942    0.5000    0.0000 O   0  0  0  0  0  0  0  0  0  0  0  0
    4.5981   -3.5000    0.0000 O   0  0  0  0  0  0  0  0  0  0  0  0
    8.9282   -4.0000    0.0000 O   0  0  0  0  0  0  0  0  0  0  0  0
    8.0622   -2.5000    0.0000 N   0  0  0  0  0  0  0  0  0  0  0  0
    8.0622    0.5000    0.0000 N   0  0  0  0  0  0  0  0  0  0  0  0
    9.7942    3.5000    0.0000 N   0  0  0  0  0  0  0  0  0  0  0  0
   10.6603    2.0000    0.0000 N   0  0  0  0  0  0  0  0  0  0  0  0
   10.6603    5.0000    0.0000 N   0  0  0  0  0  0  0  0  0  0  0  0
   11.5263    3.5000    0.0000 N   0  0  0  0  0  0  0  0  0  0  0  0
    9.7942   -0.5000    0.0000 C   0  0  0  0  0  0  0  0  0  0  0  0
   10.6603   -1.0000    0.0000 C   0  0  0  0  0  0  0  0  0  0  0  0
    8.9282   -2.0000    0.0000 C   0  0  0  0  0  0  0  0  0  0  0  0
    8.9282   -1.0000    0.0000 C   0  0  0  0  0  0  0  0  0  0  0  0
   10.6603   -2.0000    0.0000 C   0  0  0  0  0  0  0  0  0  0  0  0
    9.7942   -2.5000    0.0000 C   0  0  0  0  0  0  0  0  0  0  0  0
    7.1962   -4.0000    0.0000 C   0  0  0  0  0  0  0  0  0  0  0  0
   11.5263   -0.5000    0.0000 C   0  0  0  0  0  0  0  0  0  0  0  0
    8.0622   -3.5000    0.0000 C   0  0  0  0  0  0  0  0  0  0  0  0
    8.9282    1.0000    0.0000 C   0  0  0  0  0  0  0  0  0  0  0  0
    8.9282    2.0000    0.0000 C   0  0  0  0  0  0  0  0  0  0  0  0
    6.3301   -3.5000    0.0000 C   0  0  0  0  0  0  0  0  0  0  0  0
    5.4641   -4.0000    0.0000 C   0  0  0  0  0  0  0  0  0  0  0  0
    7.1962   -5.0000    0.0000 C   0  0  0  0  0  0  0  0  0  0  0  0
    5.4641   -5.0000    0.0000 C   0  0  0  0  0  0  0  0  0  0  0  0
    6.3301   -5.5000    0.0000 C   0  0  0  0  0  0  0  0  0  0  0  0
    8.0622    2.5000    0.0000 C   0  0  0  0  0  0  0  0  0  0  0  0
    9.7942    2.5000    0.0000 C   0  0  0  0  0  0  0  0  0  0  0  0
    7.1962    2.0000    0.0000 C   0  0  0  0  0  0  0  0  0  0  0  0
    3.7320   -4.0000    0.0000 C   0  0  0  0  0  0  0  0  0  0  0  0
    7.1962    1.0000    0.0000 C   0  0  0  0  0  0  0  0  0  0  0  0
    2.8660   -4.5000    0.0000 C   0  0  0  0  0  0  0  0  0  0  0  0
   10.6603    4.0000    0.0000 C   0  0  0  0  0  0  0  0  0  0  0  0
   11.5263    2.5000    0.0000 C   0  0  0  0  0  0  0  0  0  0  0  0
   11.5263    5.5000    0.0000 C   0  0  0  0  0  0  0  0  0  0  0  0
    8.3913   -0.6900    0.0000 H   0  0  0  0  0  0  0  0  0  0  0  0
   11.1972   -2.3100    0.0000 H   0  0  0  0  0  0  0  0  0  0  0  0
    9.7942   -3.1200    0.0000 H   0  0  0  0  0  0  0  0  0  0  0  0
    7.5252   -2.1900    0.0000 H   0  0  0  0  0  0  0  0  0  0  0  0
   11.8363   -1.0369    0.0000 H   0  0  0  0  0  0  0  0  0  0  0  0
   12.0632   -0.1900    0.0000 H   0  0  0  0  0  0  0  0  0  0  0  0
   11.2163    0.0369    0.0000 H   0  0  0  0  0  0  0  0  0  0  0  0
    6.3301   -2.8800    0.0000 H   0  0  0  0  0  0  0  0  0  0  0  0
    7.7331   -5.3100    0.0000 H   0  0  0  0  0  0  0  0  0  0  0  0
    4.9272   -5.3100    0.0000 H   0  0  0  0  0  0  0  0  0  0  0  0
    6.3301   -6.1200    0.0000 H   0  0  0  0  0  0  0  0  0  0  0  0
    8.0622    3.1200    0.0000 H   0  0  0  0  0  0  0  0  0  0  0  0
    6.6592    2.3100    0.0000 H   0  0  0  0  0  0  0  0  0  0  0  0
    6.6592    0.6900    0.0000 H   0  0  0  0  0  0  0  0  0  0  0  0
    2.8660   -3.8800    0.0000 H   0  0  0  0  0  0  0  0  0  0  0  0
   12.0632    2.1900    0.0000 H   0  0  0  0  0  0  0  0  0  0  0  0
   10.1233    5.3100    0.0000 H   0  0  0  0  0  0  0  0  0  0  0  0
   11.8363    4.9631    0.0000 H   0  0  0  0  0  0  0  0  0  0  0  0
   12.0632    5.8100    0.0000 H   0  0  0  0  0  0  0  0  0  0  0  0
   11.2163    6.0369    0.0000 H   0  0  0  0  0  0  0  0  0  0  0  0
  1 33  1  0  0  0  0
  2 33  1  0  0  0  0
  3 35  1  0  0  0  0
  4 35  1  0  0  0  0
  5 14  1  0  0  0  0
  5 23  1  0  0  0  0
  6 26  1  0  0  0  0
  6 33  1  0  0  0  0
  7 22  2  0  0  0  0
  8 16  1  0  0  0  0
  8 22  1  0  0  0  0
  8 42  1  0  0  0  0
  9 23  1  0  0  0  0
  9 34  2  0  0  0  0
 10 31  2  0  0  0  0
 10 36  1  0  0  0  0
 11 31  1  0  0  0  0
 11 37  2  0  0  0  0
 12 36  1  0  0  0  0
 12 38  1  0  0  0  0
 12 55  1  0  0  0  0
 13 36  2  0  0  0  0
 13 37  1  0  0  0  0
 14 15  2  0  0  0  0
 14 17  1  0  0  0  0
 15 18  1  0  0  0  0
 15 21  1  0  0  0  0
 16 17  2  0  0  0  0
 16 19  1  0  0  0  0
 17 39  1  0  0  0  0
 18 19  2  0  0  0  0
 18 40  1  0  0  0  0
 19 41  1  0  0  0  0
 20 22  1  0  0  0  0
 20 25  2  0  0  0  0
 20 27  1  0  0  0  0
 21 43  1  0  0  0  0
 21 44  1  0  0  0  0
 21 45  1  0  0  0  0
 23 24  2  0  0  0  0
 24 30  1  0  0  0  0
 24 31  1  0  0  0  0
 25 26  1  0  0  0  0
 25 46  1  0  0  0  0
 26 28  2  0  0  0  0
 27 29  2  0  0  0  0
 27 47  1  0  0  0  0
 28 29  1  0  0  0  0
 28 48  1  0  0  0  0
 29 49  1  0  0  0  0
 30 32  2  0  0  0  0
 30 50  1  0  0  0  0
 32 34  1  0  0  0  0
 32 51  1  0  0  0  0
 33 35  1  0  0  0  0
 34 52  1  0  0  0  0
 35 53  1  0  0  0  0
 37 54  1  0  0  0  0
 38 56  1  0  0  0  0
 38 57  1  0  0  0  0
 38 58  1  0  0  0  0
M  END
> <PUBCHEM_COMPOUND_CID>
17748275

> <PUBCHEM_COMPOUND_CANONICALIZED>
1

> <PUBCHEM_CACTVS_COMPLEXITY>
769

> <PUBCHEM_CACTVS_HBOND_ACCEPTOR>
12

> <PUBCHEM_CACTVS_HBOND_DONOR>
2

> <PUBCHEM_CACTVS_ROTATABLE_BOND>
9

> <PUBCHEM_CACTVS_SUBSKEYS>
AAADceB7scAAAAAAAAAAAAAAAAAAAAAAAAA8eIEAAAAAAAAB9AAAHwAQAAAADAzBmxQ/1pbIFACoAjd3dACCiCk1IqAJ2KE+bNiMLvLE/ZuOOSju1BvI6Ye62DOOCAABAgAIAAAQAAIEABAAAAAAAAAAAA==

> <PUBCHEM_IUPAC_OPENEYE_NAME>
N-[4-methyl-3-[[3-[4-(methylamino)-1,3,5-triazin-2-yl]-2-pyridyl]oxy]phenyl]-3-(1,1,2,2-tetrafluoroethoxy)benzamide

> <PUBCHEM_IUPAC_CAS_NAME>
N-[4-methyl-3-[[3-[4-(methylamino)-1,3,5-triazin-2-yl]-2-pyridinyl]oxy]phenyl]-3-(1,1,2,2-tetrafluoroethoxy)benzamide

> <PUBCHEM_IUPAC_NAME_MARKUP>
<I>N</I>-[4-methyl-3-[3-[4-(methylamino)-1,3,5-triazin-2-yl]pyridin-2-yl]oxyphenyl]-3-(1,1,2,2-tetrafluoroethoxy)benzamide

> <PUBCHEM_IUPAC_NAME>
N-[4-methyl-3-[3-[4-(methylamino)-1,3,5-triazin-2-yl]pyridin-2-yl]oxyphenyl]-3-(1,1,2,2-tetrafluoroethoxy)benzamide

> <PUBCHEM_IUPAC_SYSTEMATIC_NAME>
N-[4-methyl-3-[3-[4-(methylamino)-1,3,5-triazin-2-yl]pyridin-2-yl]oxy-phenyl]-3-[1,1,2,2-tetrakis(fluoranyl)ethoxy]benzamide

> <PUBCHEM_IUPAC_TRADITIONAL_NAME>
N-[4-methyl-3-[[3-[4-(methylamino)-s-triazin-2-yl]-2-pyridyl]oxy]phenyl]-3-(1,1,2,2-tetrafluoroethoxy)benzamide

> <PUBCHEM_IUPAC_INCHI>
InChI=1S/C25H20F4N6O3/c1-14-8-9-16(34-21(36)15-5-3-6-17(11-15)38-25(28,29)23(26)27)12-19(14)37-22-18(7-4-10-31-22)20-32-13-33-24(30-2)35-20/h3-13,23H,1-2H3,(H,34,36)(H,30,32,33,35)

> <PUBCHEM_IUPAC_INCHIKEY>
GHRNBCMJJKMYNR-UHFFFAOYSA-N

> <PUBCHEM_XLOGP3_AA>
5.5

> <PUBCHEM_EXACT_MASS>
528.15330117

> <PUBCHEM_MOLECULAR_FORMULA>
C25H20F4N6O3

> <PUBCHEM_MOLECULAR_WEIGHT>
528.5

> <PUBCHEM_SMILES>
CC1=C(C=C(C=C1)NC(=O)C2=CC(=CC=C2)OC(C(F)F)(F)F)OC3=C(C=CC=N3)C4=NC(=NC=N4)NC

> <PUBCHEM_OPENEYE_CAN_SMILES>
CC1=C(C=C(C=C1)NC(=O)C2=CC(=CC=C2)OC(C(F)F)(F)F)OC3=C(C=CC=N3)C4=NC(=NC=N4)NC

> <PUBCHEM_OPENEYE_ISO_SMILES>
CC1=C(C=C(C=C1)NC(=O)C2=CC(=CC=C2)OC(C(F)F)(F)F)OC3=C(C=CC=N3)C4=NC(=NC=N4)NC

> <PUBCHEM_CACTVS_TPSA>
111

> <PUBCHEM_MONOISOTOPIC_WEIGHT>
528.15330117

> <PUBCHEM_TOTAL_CHARGE>
0

> <PUBCHEM_HEAVY_ATOM_COUNT>
38

> <PUBCHEM_ATOM_DEF_STEREO_COUNT>
0

> <PUBCHEM_ATOM_UDEF_STEREO_COUNT>
0

> <PUBCHEM_BOND_DEF_STEREO_COUNT>
0

> <PUBCHEM_BOND_UDEF_STEREO_COUNT>
0

> <PUBCHEM_ISOTOPIC_ATOM_COUNT>
0

> <PUBCHEM_COMPONENT_COUNT>
1

> <PUBCHEM_CACTVS_TAUTO_COUNT>
-1

> <PUBCHEM_COORDINATE_TYPE>
1
5
255

> <PUBCHEM_BONDANNOTATIONS>
10  31  8
10  36  8
11  31  8
11  37  8
13  36  8
13  37  8
14  15  8
14  17  8
15  18  8
16  17  8
16  19  8
18  19  8
20  25  8
20  27  8
23  24  8
24  30  8
25  26  8
26  28  8
27  29  8
28  29  8
30  32  8
32  34  8
9  23  8
9  34  8

$$$$
