2727469
  -OEChem-03202500172D

 41 44  0     0  0  0  0  0  0999 V2000
    8.9282    0.8281    0.0000 N   0  0  0  0  0  0  0  0  0  0  0  0
    6.3301    0.3281    0.0000 N   0  0  0  0  0  0  0  0  0  0  0  0
    8.0622    0.3281    0.0000 N   0  0  0  0  0  0  0  0  0  0  0  0
   10.4580    1.3282    0.0000 N   0  0  0  0  0  0  0  0  0  0  0  0
    9.8744    2.1329    0.0000 N   0  0  0  0  0  0  0  0  0  0  0  0
    5.4641    0.8281    0.0000 C   0  0  0  0  0  0  0  0  0  0  0  0
    4.5981    0.3281    0.0000 C   0  0  0  0  0  0  0  0  0  0  0  0
    7.1962    0.8281    0.0000 C   0  0  0  0  0  0  0  0  0  0  0  0
    9.8744    0.5234    0.0000 C   0  0  0  0  0  0  0  0  0  0  0  0
    8.9282    1.8282    0.0000 C   0  0  0  0  0  0  0  0  0  0  0  0
   10.1851   -0.4271    0.0000 C   0  0  0  0  0  0  0  0  0  0  0  0
    7.1962    1.8282    0.0000 C   0  0  0  0  0  0  0  0  0  0  0  0
    8.0622    2.3282    0.0000 C   0  0  0  0  0  0  0  0  0  0  0  0
    3.7320    0.8281    0.0000 C   0  0  0  0  0  0  0  0  0  0  0  0
    4.5981   -0.6719    0.0000 C   0  0  0  0  0  0  0  0  0  0  0  0
    2.8660   -0.6719    0.0000 C   0  0  0  0  0  0  0  0  0  0  0  0
    2.8660    0.3281    0.0000 C   0  0  0  0  0  0  0  0  0  0  0  0
    3.7320   -1.1718    0.0000 C   0  0  0  0  0  0  0  0  0  0  0  0
    9.5172   -1.1714    0.0000 C   0  0  0  0  0  0  0  0  0  0  0  0
   11.1636   -0.6333    0.0000 C   0  0  0  0  0  0  0  0  0  0  0  0
    2.0000   -1.1718    0.0000 C   0  0  0  0  0  0  0  0  0  0  0  0
    9.8279   -2.1219    0.0000 C   0  0  0  0  0  0  0  0  0  0  0  0
   11.4743   -1.5838    0.0000 C   0  0  0  0  0  0  0  0  0  0  0  0
   10.8064   -2.3282    0.0000 C   0  0  0  0  0  0  0  0  0  0  0  0
    5.8626    1.3031    0.0000 H   0  0  0  0  0  0  0  0  0  0  0  0
    5.0656    1.3031    0.0000 H   0  0  0  0  0  0  0  0  0  0  0  0
    6.3301   -0.2919    0.0000 H   0  0  0  0  0  0  0  0  0  0  0  0
    6.6592    2.1382    0.0000 H   0  0  0  0  0  0  0  0  0  0  0  0
    8.0622    2.9482    0.0000 H   0  0  0  0  0  0  0  0  0  0  0  0
    3.7320    1.4482    0.0000 H   0  0  0  0  0  0  0  0  0  0  0  0
    5.1350   -0.9819    0.0000 H   0  0  0  0  0  0  0  0  0  0  0  0
    2.3291    0.6381    0.0000 H   0  0  0  0  0  0  0  0  0  0  0  0
    3.7320   -1.7918    0.0000 H   0  0  0  0  0  0  0  0  0  0  0  0
    8.9106   -1.0436    0.0000 H   0  0  0  0  0  0  0  0  0  0  0  0
   11.5777   -0.1719    0.0000 H   0  0  0  0  0  0  0  0  0  0  0  0
    1.6900   -0.6349    0.0000 H   0  0  0  0  0  0  0  0  0  0  0  0
    1.4631   -1.4818    0.0000 H   0  0  0  0  0  0  0  0  0  0  0  0
    2.3100   -1.7088    0.0000 H   0  0  0  0  0  0  0  0  0  0  0  0
    9.4138   -2.5834    0.0000 H   0  0  0  0  0  0  0  0  0  0  0  0
   12.0809   -1.7117    0.0000 H   0  0  0  0  0  0  0  0  0  0  0  0
   10.9990   -2.9175    0.0000 H   0  0  0  0  0  0  0  0  0  0  0  0
  1  3  1  0  0  0  0
  1  9  1  0  0  0  0
  1 10  1  0  0  0  0
  2  6  1  0  0  0  0
  2  8  1  0  0  0  0
  2 27  1  0  0  0  0
  3  8  2  0  0  0  0
  4  5  1  0  0  0  0
  4  9  2  0  0  0  0
  5 10  2  0  0  0  0
  6  7  1  0  0  0  0
  6 25  1  0  0  0  0
  6 26  1  0  0  0  0
  7 14  2  0  0  0  0
  7 15  1  0  0  0  0
  8 12  1  0  0  0  0
  9 11  1  0  0  0  0
 10 13  1  0  0  0  0
 11 19  2  0  0  0  0
 11 20  1  0  0  0  0
 12 13  2  0  0  0  0
 12 28  1  0  0  0  0
 13 29  1  0  0  0  0
 14 17  1  0  0  0  0
 14 30  1  0  0  0  0
 15 18  2  0  0  0  0
 15 31  1  0  0  0  0
 16 17  2  0  0  0  0
 16 18  1  0  0  0  0
 16 21  1  0  0  0  0
 17 32  1  0  0  0  0
 18 33  1  0  0  0  0
 19 22  1  0  0  0  0
 19 34  1  0  0  0  0
 20 23  2  0  0  0  0
 20 35  1  0  0  0  0
 21 36  1  0  0  0  0
 21 37  1  0  0  0  0
 21 38  1  0  0  0  0
 22 24  2  0  0  0  0
 22 39  1  0  0  0  0
 23 24  1  0  0  0  0
 23 40  1  0  0  0  0
 24 41  1  0  0  0  0
M  END
> <PUBCHEM_COMPOUND_CID>
2727469

> <PUBCHEM_COMPOUND_CANONICALIZED>
1

> <PUBCHEM_CACTVS_COMPLEXITY>
389

> <PUBCHEM_CACTVS_HBOND_ACCEPTOR>
4

> <PUBCHEM_CACTVS_HBOND_DONOR>
1

> <PUBCHEM_CACTVS_ROTATABLE_BOND>
4

> <PUBCHEM_CACTVS_SUBSKEYS>
AAADceB7gAAAAAAAAAAAAAAAAAAAAWAAAAA8YIAAAAAAAFgB9AAAHAAYAAAADADBGwQzsJ7IEACiAiJiZACShCshAqAdmKA4ZJiIKKLAmZGEoAhwmALIyCcQgAAOQAAAAAAAAACAAAAAAAAAAAAAAAAAAA==

> <PUBCHEM_IUPAC_OPENEYE_NAME>
3-phenyl-N-(p-tolylmethyl)-[1,2,4]triazolo[4,3-b]pyridazin-6-amine

> <PUBCHEM_IUPAC_CAS_NAME>
N-[(4-methylphenyl)methyl]-3-phenyl-[1,2,4]triazolo[4,3-b]pyridazin-6-amine

> <PUBCHEM_IUPAC_NAME_MARKUP>
<I>N</I>-[(4-methylphenyl)methyl]-3-phenyl-[1,2,4]triazolo[4,3-b]pyridazin-6-amine

> <PUBCHEM_IUPAC_NAME>
N-[(4-methylphenyl)methyl]-3-phenyl-[1,2,4]triazolo[4,3-b]pyridazin-6-amine

> <PUBCHEM_IUPAC_SYSTEMATIC_NAME>
N-[(4-methylphenyl)methyl]-3-phenyl-[1,2,4]triazolo[4,3-b]pyridazin-6-amine

> <PUBCHEM_IUPAC_TRADITIONAL_NAME>
(4-methylbenzyl)-(3-phenyl-[1,2,4]triazolo[4,3-b]pyridazin-6-yl)amine

> <PUBCHEM_IUPAC_INCHI>
InChI=1S/C19H17N5/c1-14-7-9-15(10-8-14)13-20-17-11-12-18-21-22-19(24(18)23-17)16-5-3-2-4-6-16/h2-12H,13H2,1H3,(H,20,23)

> <PUBCHEM_IUPAC_INCHIKEY>
PWNFEFRGKMPFSG-UHFFFAOYSA-N

> <PUBCHEM_XLOGP3_AA>
3.6

> <PUBCHEM_EXACT_MASS>
315.14839556

> <PUBCHEM_MOLECULAR_FORMULA>
C19H17N5

> <PUBCHEM_MOLECULAR_WEIGHT>
315.4

> <PUBCHEM_SMILES>
CC1=CC=C(C=C1)CNC2=NN3C(=NN=C3C4=CC=CC=C4)C=C2

> <PUBCHEM_OPENEYE_CAN_SMILES>
CC1=CC=C(C=C1)CNC2=NN3C(=NN=C3C4=CC=CC=C4)C=C2

> <PUBCHEM_OPENEYE_ISO_SMILES>
CC1=CC=C(C=C1)CNC2=NN3C(=NN=C3C4=CC=CC=C4)C=C2

> <PUBCHEM_CACTVS_TPSA>
55.1

> <PUBCHEM_MONOISOTOPIC_WEIGHT>
315.14839556

> <PUBCHEM_TOTAL_CHARGE>
0

> <PUBCHEM_HEAVY_ATOM_COUNT>
24

> <PUBCHEM_ATOM_DEF_STEREO_COUNT>
0

> <PUBCHEM_ATOM_UDEF_STEREO_COUNT>
0

> <PUBCHEM_BOND_DEF_STEREO_COUNT>
0

> <PUBCHEM_BOND_UDEF_STEREO_COUNT>
0

> <PUBCHEM_ISOTOPIC_ATOM_COUNT>
0

> <PUBCHEM_COMPONENT_COUNT>
1

> <PUBCHEM_CACTVS_TAUTO_COUNT>
-1

> <PUBCHEM_COORDINATE_TYPE>
1
5
255

> <PUBCHEM_BONDANNOTATIONS>
1  10  8
1  3  8
1  9  8
10  13  8
11  19  8
11  20  8
12  13  8
14  17  8
15  18  8
16  17  8
16  18  8
19  22  8
20  23  8
22  24  8
23  24  8
3  8  8
4  5  8
4  9  8
5  10  8
7  14  8
7  15  8
8  12  8

$$$$
