49830639
  -OEChem-03202503582D

 61 65  0     0  0  0  0  0  0999 V2000
    9.8800    0.2805    0.0000 O   0  0  0  0  0  0  0  0  0  0  0  0
    3.3440   -0.2490    0.0000 O   0  0  0  0  0  0  0  0  0  0  0  0
    6.5814    1.3383    0.0000 N   0  0  0  0  0  0  0  0  0  0  0  0
    4.6267    0.9149    0.0000 N   0  0  0  0  0  0  0  0  0  0  0  0
   13.6943   -1.5766    0.0000 N   0  0  0  0  0  0  0  0  0  0  0  0
   14.6884   -1.5758    0.0000 N   0  0  0  0  0  0  0  0  0  0  0  0
    2.9773    1.4438    0.0000 N   0  0  0  0  0  0  0  0  0  0  0  0
   17.6416   -0.6863    0.0000 N   0  0  0  0  0  0  0  0  0  0  0  0
   19.7544    0.9062    0.0000 N   0  0  0  0  0  0  0  0  0  0  0  0
    5.9094    2.0788    0.0000 C   0  0  0  0  0  0  0  0  0  0  0  0
    6.2760    0.3861    0.0000 C   0  0  0  0  0  0  0  0  0  0  0  0
    4.9320    1.8672    0.0000 C   0  0  0  0  0  0  0  0  0  0  0  0
    5.2987    0.1744    0.0000 C   0  0  0  0  0  0  0  0  0  0  0  0
    7.5587    1.5500    0.0000 C   0  0  0  0  0  0  0  0  0  0  0  0
    8.2307    0.8094    0.0000 C   0  0  0  0  0  0  0  0  0  0  0  0
   13.8847    0.9068    0.0000 C   0  0  0  0  0  0  0  0  0  0  0  0
   14.1937   -0.0442    0.0000 C   0  0  0  0  0  0  0  0  0  0  0  0
   12.5757   -0.0442    0.0000 C   0  0  0  0  0  0  0  0  0  0  0  0
   12.8847    0.9068    0.0000 C   0  0  0  0  0  0  0  0  0  0  0  0
   13.3847   -0.6320    0.0000 C   0  0  0  0  0  0  0  0  0  0  0  0
    9.2080    1.0211    0.0000 C   0  0  0  0  0  0  0  0  0  0  0  0
    3.6493    0.7033    0.0000 C   0  0  0  0  0  0  0  0  0  0  0  0
   14.9964   -0.6306    0.0000 C   0  0  0  0  0  0  0  0  0  0  0  0
   11.5603   -0.2765    0.0000 C   0  0  0  0  0  0  0  0  0  0  0  0
   10.8573    0.4922    0.0000 C   0  0  0  0  0  0  0  0  0  0  0  0
   12.1997    1.6916    0.0000 C   0  0  0  0  0  0  0  0  0  0  0  0
   11.1792    1.4829    0.0000 C   0  0  0  0  0  0  0  0  0  0  0  0
   15.9480   -0.3232    0.0000 C   0  0  0  0  0  0  0  0  0  0  0  0
    2.0000    1.2321    0.0000 C   0  0  0  0  0  0  0  0  0  0  0  0
   16.1576    0.6545    0.0000 C   0  0  0  0  0  0  0  0  0  0  0  0
   16.6900   -0.9937    0.0000 C   0  0  0  0  0  0  0  0  0  0  0  0
   17.1092    0.9619    0.0000 C   0  0  0  0  0  0  0  0  0  0  0  0
   17.8512    0.2915    0.0000 C   0  0  0  0  0  0  0  0  0  0  0  0
   18.8028    0.5989    0.0000 C   0  0  0  0  0  0  0  0  0  0  0  0
    6.4339    2.4094    0.0000 H   0  0  0  0  0  0  0  0  0  0  0  0
    5.6749    2.6528    0.0000 H   0  0  0  0  0  0  0  0  0  0  0  0
    6.3000   -0.2335    0.0000 H   0  0  0  0  0  0  0  0  0  0  0  0
    6.8903    0.3021    0.0000 H   0  0  0  0  0  0  0  0  0  0  0  0
    4.9080    2.4867    0.0000 H   0  0  0  0  0  0  0  0  0  0  0  0
    4.3177    1.9511    0.0000 H   0  0  0  0  0  0  0  0  0  0  0  0
    4.7741   -0.1562    0.0000 H   0  0  0  0  0  0  0  0  0  0  0  0
    5.5331   -0.3996    0.0000 H   0  0  0  0  0  0  0  0  0  0  0  0
    8.0832    1.8806    0.0000 H   0  0  0  0  0  0  0  0  0  0  0  0
    7.3242    2.1239    0.0000 H   0  0  0  0  0  0  0  0  0  0  0  0
    7.7062    0.4788    0.0000 H   0  0  0  0  0  0  0  0  0  0  0  0
    8.4652    0.2355    0.0000 H   0  0  0  0  0  0  0  0  0  0  0  0
   14.4912    1.0357    0.0000 H   0  0  0  0  0  0  0  0  0  0  0  0
   13.8199    1.5234    0.0000 H   0  0  0  0  0  0  0  0  0  0  0  0
    9.7325    1.3517    0.0000 H   0  0  0  0  0  0  0  0  0  0  0  0
    8.9735    1.5950    0.0000 H   0  0  0  0  0  0  0  0  0  0  0  0
   11.3755   -0.8683    0.0000 H   0  0  0  0  0  0  0  0  0  0  0  0
   12.3981    2.2790    0.0000 H   0  0  0  0  0  0  0  0  0  0  0  0
   13.3308   -2.0788    0.0000 H   0  0  0  0  0  0  0  0  0  0  0  0
   10.7661    1.9452    0.0000 H   0  0  0  0  0  0  0  0  0  0  0  0
    3.1667    2.0342    0.0000 H   0  0  0  0  0  0  0  0  0  0  0  0
    1.8688    1.8381    0.0000 H   0  0  0  0  0  0  0  0  0  0  0  0
    1.3940    1.1009    0.0000 H   0  0  0  0  0  0  0  0  0  0  0  0
    2.1312    0.6262    0.0000 H   0  0  0  0  0  0  0  0  0  0  0  0
   15.6976    1.0702    0.0000 H   0  0  0  0  0  0  0  0  0  0  0  0
   16.5600   -1.5999    0.0000 H   0  0  0  0  0  0  0  0  0  0  0  0
   17.2392    1.5681    0.0000 H   0  0  0  0  0  0  0  0  0  0  0  0
  1 21  1  0  0  0  0
  1 25  1  0  0  0  0
  2 22  2  0  0  0  0
  3 10  1  0  0  0  0
  3 11  1  0  0  0  0
  3 14  1  0  0  0  0
  4 12  1  0  0  0  0
  4 13  1  0  0  0  0
  4 22  1  0  0  0  0
  5  6  1  0  0  0  0
  5 20  1  0  0  0  0
  5 53  1  0  0  0  0
  6 23  2  0  0  0  0
  7 22  1  0  0  0  0
  7 29  1  0  0  0  0
  7 55  1  0  0  0  0
  8 31  1  0  0  0  0
  8 33  2  0  0  0  0
  9 34  3  0  0  0  0
 10 12  1  0  0  0  0
 10 35  1  0  0  0  0
 10 36  1  0  0  0  0
 11 13  1  0  0  0  0
 11 37  1  0  0  0  0
 11 38  1  0  0  0  0
 12 39  1  0  0  0  0
 12 40  1  0  0  0  0
 13 41  1  0  0  0  0
 13 42  1  0  0  0  0
 14 15  1  0  0  0  0
 14 43  1  0  0  0  0
 14 44  1  0  0  0  0
 15 21  1  0  0  0  0
 15 45  1  0  0  0  0
 15 46  1  0  0  0  0
 16 17  1  0  0  0  0
 16 19  1  0  0  0  0
 16 47  1  0  0  0  0
 16 48  1  0  0  0  0
 17 20  2  0  0  0  0
 17 23  1  0  0  0  0
 18 19  2  0  0  0  0
 18 20  1  0  0  0  0
 18 24  1  0  0  0  0
 19 26  1  0  0  0  0
 21 49  1  0  0  0  0
 21 50  1  0  0  0  0
 23 28  1  0  0  0  0
 24 25  2  0  0  0  0
 24 51  1  0  0  0  0
 25 27  1  0  0  0  0
 26 27  2  0  0  0  0
 26 52  1  0  0  0  0
 27 54  1  0  0  0  0
 28 30  1  0  0  0  0
 28 31  2  0  0  0  0
 29 56  1  0  0  0  0
 29 57  1  0  0  0  0
 29 58  1  0  0  0  0
 30 32  2  0  0  0  0
 30 59  1  0  0  0  0
 31 60  1  0  0  0  0
 32 33  1  0  0  0  0
 32 61  1  0  0  0  0
 33 34  1  0  0  0  0
M  END
> <PUBCHEM_COMPOUND_CID>
49830639

> <PUBCHEM_COMPOUND_CANONICALIZED>
1

> <PUBCHEM_CACTVS_COMPLEXITY>
749

> <PUBCHEM_CACTVS_HBOND_ACCEPTOR>
6

> <PUBCHEM_CACTVS_HBOND_DONOR>
2

> <PUBCHEM_CACTVS_ROTATABLE_BOND>
6

> <PUBCHEM_CACTVS_SUBSKEYS>
AAADceB7sAAAAAAAAAAAAAAAAAAAAeIAAAA8WIAAAAAWAGAB8AAAHgAYAAAADAzhngY/hpPrFAC6BzRnVACyjCAxIiAY+aA+bJiM5uLE8duWvCjuzhPI6A+wwPAOoAABAAAQAABAAAIAACAAASAACQAAAA==

> <PUBCHEM_IUPAC_OPENEYE_NAME>
4-[3-[[3-(6-cyano-3-pyridyl)-1,4-dihydroindeno[1,2-c]pyrazol-7-yl]oxy]propyl]-N-methyl-piperazine-1-carboxamide

> <PUBCHEM_IUPAC_CAS_NAME>
4-[3-[[3-(6-cyano-3-pyridinyl)-1,4-dihydroindeno[1,2-c]pyrazol-7-yl]oxy]propyl]-N-methyl-1-piperazinecarboxamide

> <PUBCHEM_IUPAC_NAME_MARKUP>
4-[3-[[3-(6-cyanopyridin-3-yl)-1,4-dihydroindeno[1,2-c]pyrazol-7-yl]oxy]propyl]-<I>N</I>-methylpiperazine-1-carboxamide

> <PUBCHEM_IUPAC_NAME>
4-[3-[[3-(6-cyanopyridin-3-yl)-1,4-dihydroindeno[1,2-c]pyrazol-7-yl]oxy]propyl]-N-methylpiperazine-1-carboxamide

> <PUBCHEM_IUPAC_SYSTEMATIC_NAME>
4-[3-[[3-(6-cyanopyridin-3-yl)-1,4-dihydroindeno[1,2-c]pyrazol-7-yl]oxy]propyl]-N-methyl-piperazine-1-carboxamide

> <PUBCHEM_IUPAC_TRADITIONAL_NAME>
4-[3-[[3-(6-cyano-3-pyridyl)-1,4-dihydroindeno[1,2-c]pyrazol-7-yl]oxy]propyl]-N-methyl-piperazine-1-carboxamide

> <PUBCHEM_IUPAC_INCHI>
InChI=1S/C25H27N7O2/c1-27-25(33)32-10-8-31(9-11-32)7-2-12-34-20-6-4-17-13-22-23(29-30-24(22)21(17)14-20)18-3-5-19(15-26)28-16-18/h3-6,14,16H,2,7-13H2,1H3,(H,27,33)(H,29,30)

> <PUBCHEM_IUPAC_INCHIKEY>
YGJKHDBRTOPTNK-UHFFFAOYSA-N

> <PUBCHEM_XLOGP3_AA>
2

> <PUBCHEM_EXACT_MASS>
457.22262313

> <PUBCHEM_MOLECULAR_FORMULA>
C25H27N7O2

> <PUBCHEM_MOLECULAR_WEIGHT>
457.5

> <PUBCHEM_SMILES>
CNC(=O)N1CCN(CC1)CCCOC2=CC3=C(CC4=C3NN=C4C5=CN=C(C=C5)C#N)C=C2

> <PUBCHEM_OPENEYE_CAN_SMILES>
CNC(=O)N1CCN(CC1)CCCOC2=CC3=C(CC4=C3NN=C4C5=CN=C(C=C5)C#N)C=C2

> <PUBCHEM_OPENEYE_ISO_SMILES>
CNC(=O)N1CCN(CC1)CCCOC2=CC3=C(CC4=C3NN=C4C5=CN=C(C=C5)C#N)C=C2

> <PUBCHEM_CACTVS_TPSA>
110

> <PUBCHEM_MONOISOTOPIC_WEIGHT>
457.22262313

> <PUBCHEM_TOTAL_CHARGE>
0

> <PUBCHEM_HEAVY_ATOM_COUNT>
34

> <PUBCHEM_ATOM_DEF_STEREO_COUNT>
0

> <PUBCHEM_ATOM_UDEF_STEREO_COUNT>
0

> <PUBCHEM_BOND_DEF_STEREO_COUNT>
0

> <PUBCHEM_BOND_UDEF_STEREO_COUNT>
0

> <PUBCHEM_ISOTOPIC_ATOM_COUNT>
0

> <PUBCHEM_COMPONENT_COUNT>
1

> <PUBCHEM_CACTVS_TAUTO_COUNT>
-1

> <PUBCHEM_COORDINATE_TYPE>
1
5
255

> <PUBCHEM_BONDANNOTATIONS>
17  20  8
17  23  8
18  19  8
18  24  8
19  26  8
24  25  8
25  27  8
26  27  8
28  30  8
28  31  8
30  32  8
32  33  8
5  20  8
5  6  8
6  23  8
8  31  8
8  33  8

$$$$
