49830884
  -OEChem-03202504192D

 53 56  0     0  0  0  0  0  0999 V2000
    5.0000    2.7437    0.0000 Cl  0  0  0  0  0  0  0  0  0  0  0  0
    2.0000    4.4757    0.0000 Cl  0  0  0  0  0  0  0  0  0  0  0  0
   12.1654   -2.5747    0.0000 O   0  0  0  0  0  0  0  0  0  0  0  0
    6.7071   -1.9452    0.0000 O   0  0  0  0  0  0  0  0  0  0  0  0
    4.3752   -1.3203    0.0000 O   0  0  0  0  0  0  0  0  0  0  0  0
   10.5191   -3.1128    0.0000 O   0  0  0  0  0  0  0  0  0  0  0  0
   10.8762   -1.4180    0.0000 N   0  0  0  0  0  0  0  0  0  0  0  0
    7.3320    0.3868    0.0000 N   0  0  0  0  0  0  0  0  0  0  0  0
    5.0000    1.0116    0.0000 N   0  0  0  0  0  0  0  0  0  0  0  0
   11.4599   -0.6132    0.0000 N   0  0  0  0  0  0  0  0  0  0  0  0
   12.4761   -3.5252    0.0000 C   0  0  0  0  0  0  0  0  0  0  0  0
    6.4659   -0.1132    0.0000 C   0  0  0  0  0  0  0  0  0  0  0  0
    9.9300   -1.1132    0.0000 C   0  0  0  0  0  0  0  0  0  0  0  0
    5.5000    0.1456    0.0000 C   0  0  0  0  0  0  0  0  0  0  0  0
    9.9300   -0.1132    0.0000 C   0  0  0  0  0  0  0  0  0  0  0  0
    8.1980   -0.1132    0.0000 C   0  0  0  0  0  0  0  0  0  0  0  0
    9.0640    0.3868    0.0000 C   0  0  0  0  0  0  0  0  0  0  0  0
   12.7867   -4.4757    0.0000 C   0  0  0  0  0  0  0  0  0  0  0  0
   13.4266   -3.2146    0.0000 C   0  0  0  0  0  0  0  0  0  0  0  0
   11.5256   -3.8359    0.0000 C   0  0  0  0  0  0  0  0  0  0  0  0
    6.2071   -1.0791    0.0000 C   0  0  0  0  0  0  0  0  0  0  0  0
    5.2412   -0.8203    0.0000 C   0  0  0  0  0  0  0  0  0  0  0  0
    9.0640   -1.6132    0.0000 C   0  0  0  0  0  0  0  0  0  0  0  0
    8.1980   -1.1132    0.0000 C   0  0  0  0  0  0  0  0  0  0  0  0
    4.0000    1.0116    0.0000 C   0  0  0  0  0  0  0  0  0  0  0  0
   11.1869   -2.3685    0.0000 C   0  0  0  0  0  0  0  0  0  0  0  0
   10.8762    0.1915    0.0000 C   0  0  0  0  0  0  0  0  0  0  0  0
    3.5000    1.8776    0.0000 C   0  0  0  0  0  0  0  0  0  0  0  0
    4.0000    2.7437    0.0000 C   0  0  0  0  0  0  0  0  0  0  0  0
    2.5000    1.8776    0.0000 C   0  0  0  0  0  0  0  0  0  0  0  0
    3.5000    3.6097    0.0000 C   0  0  0  0  0  0  0  0  0  0  0  0
    2.0000    2.7437    0.0000 C   0  0  0  0  0  0  0  0  0  0  0  0
    2.5000    3.6097    0.0000 C   0  0  0  0  0  0  0  0  0  0  0  0
    7.3320    1.0068    0.0000 H   0  0  0  0  0  0  0  0  0  0  0  0
    9.0640    1.0068    0.0000 H   0  0  0  0  0  0  0  0  0  0  0  0
   12.1974   -4.6683    0.0000 H   0  0  0  0  0  0  0  0  0  0  0  0
   12.9794   -5.0650    0.0000 H   0  0  0  0  0  0  0  0  0  0  0  0
   13.3761   -4.2831    0.0000 H   0  0  0  0  0  0  0  0  0  0  0  0
   13.6192   -3.8039    0.0000 H   0  0  0  0  0  0  0  0  0  0  0  0
   14.0159   -3.0219    0.0000 H   0  0  0  0  0  0  0  0  0  0  0  0
   13.2340   -2.6252    0.0000 H   0  0  0  0  0  0  0  0  0  0  0  0
   11.3329   -3.2466    0.0000 H   0  0  0  0  0  0  0  0  0  0  0  0
   10.9362   -4.0285    0.0000 H   0  0  0  0  0  0  0  0  0  0  0  0
   11.7182   -4.4252    0.0000 H   0  0  0  0  0  0  0  0  0  0  0  0
    9.0640   -2.2332    0.0000 H   0  0  0  0  0  0  0  0  0  0  0  0
    5.3100    1.5486    0.0000 H   0  0  0  0  0  0  0  0  0  0  0  0
    7.6610   -1.4232    0.0000 H   0  0  0  0  0  0  0  0  0  0  0  0
    3.4174    0.7996    0.0000 H   0  0  0  0  0  0  0  0  0  0  0  0
    4.1077    0.4010    0.0000 H   0  0  0  0  0  0  0  0  0  0  0  0
   11.0689    0.7808    0.0000 H   0  0  0  0  0  0  0  0  0  0  0  0
    2.1900    1.3407    0.0000 H   0  0  0  0  0  0  0  0  0  0  0  0
    3.8100    4.1466    0.0000 H   0  0  0  0  0  0  0  0  0  0  0  0
    1.3800    2.7437    0.0000 H   0  0  0  0  0  0  0  0  0  0  0  0
  1 29  1  0  0  0  0
  2 33  1  0  0  0  0
  3 11  1  0  0  0  0
  3 26  1  0  0  0  0
  4 21  2  0  0  0  0
  5 22  2  0  0  0  0
  6 26  2  0  0  0  0
  7 10  1  0  0  0  0
  7 13  1  0  0  0  0
  7 26  1  0  0  0  0
  8 12  1  0  0  0  0
  8 16  1  0  0  0  0
  8 34  1  0  0  0  0
  9 14  1  0  0  0  0
  9 25  1  0  0  0  0
  9 46  1  0  0  0  0
 10 27  2  0  0  0  0
 11 18  1  0  0  0  0
 11 19  1  0  0  0  0
 11 20  1  0  0  0  0
 12 14  2  0  0  0  0
 12 21  1  0  0  0  0
 13 15  2  0  0  0  0
 13 23  1  0  0  0  0
 14 22  1  0  0  0  0
 15 17  1  0  0  0  0
 15 27  1  0  0  0  0
 16 17  2  0  0  0  0
 16 24  1  0  0  0  0
 17 35  1  0  0  0  0
 18 36  1  0  0  0  0
 18 37  1  0  0  0  0
 18 38  1  0  0  0  0
 19 39  1  0  0  0  0
 19 40  1  0  0  0  0
 19 41  1  0  0  0  0
 20 42  1  0  0  0  0
 20 43  1  0  0  0  0
 20 44  1  0  0  0  0
 21 22  1  0  0  0  0
 23 24  2  0  0  0  0
 23 45  1  0  0  0  0
 24 47  1  0  0  0  0
 25 28  1  0  0  0  0
 25 48  1  0  0  0  0
 25 49  1  0  0  0  0
 27 50  1  0  0  0  0
 28 29  2  0  0  0  0
 28 30  1  0  0  0  0
 29 31  1  0  0  0  0
 30 32  2  0  0  0  0
 30 51  1  0  0  0  0
 31 33  2  0  0  0  0
 31 52  1  0  0  0  0
 32 33  1  0  0  0  0
 32 53  1  0  0  0  0
M  END
> <PUBCHEM_COMPOUND_CID>
49830884

> <PUBCHEM_COMPOUND_CANONICALIZED>
1

> <PUBCHEM_CACTVS_COMPLEXITY>
843

> <PUBCHEM_CACTVS_HBOND_ACCEPTOR>
7

> <PUBCHEM_CACTVS_HBOND_DONOR>
2

> <PUBCHEM_CACTVS_ROTATABLE_BOND>
7

> <PUBCHEM_CACTVS_SUBSKEYS>
AAADceB7uAAGAAAAAAAAAAAAAABAAWAAAAAwYAAAAAAAAFgB9AAAHgIYAAAADE7BniQ+yPLIBACqA7R3XACSBAAhhwAamKG4ZtgIIKrB0/GMpAhgnADIyUcQgAAOBACAQACDAAAIAQCAAQYAAAAAAAAAAA==

> <PUBCHEM_IUPAC_OPENEYE_NAME>
tert-butyl 5-[[2-[(2,4-dichlorophenyl)methylamino]-3,4-dioxo-cyclobuten-1-yl]amino]indazole-1-carboxylate

> <PUBCHEM_IUPAC_CAS_NAME>
5-[[2-[(2,4-dichlorophenyl)methylamino]-3,4-dioxo-1-cyclobutenyl]amino]-1-indazolecarboxylic acid tert-butyl ester

> <PUBCHEM_IUPAC_NAME_MARKUP>
<I>tert</I>-butyl 5-[[2-[(2,4-dichlorophenyl)methylamino]-3,4-dioxocyclobuten-1-yl]amino]indazole-1-carboxylate

> <PUBCHEM_IUPAC_NAME>
tert-butyl 5-[[2-[(2,4-dichlorophenyl)methylamino]-3,4-dioxocyclobuten-1-yl]amino]indazole-1-carboxylate

> <PUBCHEM_IUPAC_SYSTEMATIC_NAME>
tert-butyl 5-[[2-[(2,4-dichlorophenyl)methylamino]-3,4-bis(oxidanylidene)cyclobuten-1-yl]amino]indazole-1-carboxylate

> <PUBCHEM_IUPAC_TRADITIONAL_NAME>
5-[[2-[(2,4-dichlorobenzyl)amino]-3,4-diketo-cyclobuten-1-yl]amino]indazole-1-carboxylic acid tert-butyl ester

> <PUBCHEM_IUPAC_INCHI>
InChI=1S/C23H20Cl2N4O4/c1-23(2,3)33-22(32)29-17-7-6-15(8-13(17)11-27-29)28-19-18(20(30)21(19)31)26-10-12-4-5-14(24)9-16(12)25/h4-9,11,26,28H,10H2,1-3H3

> <PUBCHEM_IUPAC_INCHIKEY>
SKLNUYVBOFIJAT-UHFFFAOYSA-N

> <PUBCHEM_XLOGP3_AA>
5.2

> <PUBCHEM_EXACT_MASS>
486.0861605

> <PUBCHEM_MOLECULAR_FORMULA>
C23H20Cl2N4O4

> <PUBCHEM_MOLECULAR_WEIGHT>
487.3

> <PUBCHEM_SMILES>
CC(C)(C)OC(=O)N1C2=C(C=C(C=C2)NC3=C(C(=O)C3=O)NCC4=C(C=C(C=C4)Cl)Cl)C=N1

> <PUBCHEM_OPENEYE_CAN_SMILES>
CC(C)(C)OC(=O)N1C2=C(C=C(C=C2)NC3=C(C(=O)C3=O)NCC4=C(C=C(C=C4)Cl)Cl)C=N1

> <PUBCHEM_OPENEYE_ISO_SMILES>
CC(C)(C)OC(=O)N1C2=C(C=C(C=C2)NC3=C(C(=O)C3=O)NCC4=C(C=C(C=C4)Cl)Cl)C=N1

> <PUBCHEM_CACTVS_TPSA>
102

> <PUBCHEM_MONOISOTOPIC_WEIGHT>
486.0861605

> <PUBCHEM_TOTAL_CHARGE>
0

> <PUBCHEM_HEAVY_ATOM_COUNT>
33

> <PUBCHEM_ATOM_DEF_STEREO_COUNT>
0

> <PUBCHEM_ATOM_UDEF_STEREO_COUNT>
0

> <PUBCHEM_BOND_DEF_STEREO_COUNT>
0

> <PUBCHEM_BOND_UDEF_STEREO_COUNT>
0

> <PUBCHEM_ISOTOPIC_ATOM_COUNT>
0

> <PUBCHEM_COMPONENT_COUNT>
1

> <PUBCHEM_CACTVS_TAUTO_COUNT>
-1

> <PUBCHEM_COORDINATE_TYPE>
1
5
255

> <PUBCHEM_BONDANNOTATIONS>
10  27  8
12  14  8
12  21  8
13  15  8
13  23  8
14  22  8
15  17  8
15  27  8
16  17  8
16  24  8
21  22  8
23  24  8
28  29  8
28  30  8
29  31  8
30  32  8
31  33  8
32  33  8
7  10  8
7  13  8

$$$$
