44317982
  -OEChem-03202505252D

 51 54  0     1  0  0  0  0  0999 V2000
    7.8163    3.6842    0.0000 O   0  0  0  0  0  0  0  0  0  0  0  0
    7.8003    0.6150    0.0000 O   0  0  0  0  0  0  0  0  0  0  0  0
    6.0682    1.6150    0.0000 O   0  0  0  0  0  0  0  0  0  0  0  0
    9.5705    1.6118    0.0000 O   0  0  0  0  0  0  0  0  0  0  0  0
    6.0465    3.6464    0.0000 O   0  0  0  0  0  0  0  0  0  0  0  0
    6.0682   -0.3850    0.0000 O   0  0  0  0  0  0  0  0  0  0  0  0
    6.9343    1.1150    0.0000 O   0  0  0  0  0  0  0  0  0  0  0  0
    5.1804   -2.9165    0.0000 O   0  0  0  0  0  0  0  0  0  0  0  0
    4.3198   -2.4196    0.0000 O   0  0  0  0  0  0  0  0  0  0  0  0
    6.9464   -3.9543    0.0000 O   0  0  0  0  0  0  0  0  0  0  0  0
    8.7202   -2.9301    0.0000 O   0  0  0  0  0  0  0  0  0  0  0  0
    2.5381   -1.4092    0.0000 O   0  0  0  0  0  0  0  0  0  0  0  0
    2.5381    0.6391    0.0000 O   0  0  0  0  0  0  0  0  0  0  0  0
    7.8003    1.6150    0.0000 C   0  0  3  0  0  0  0  0  0  0  0  0
    8.7103    2.1218    0.0000 C   0  0  3  0  0  0  0  0  0  0  0  0
    6.9343    2.1150    0.0000 C   0  0  3  0  0  0  0  0  0  0  0  0
    8.7183    3.1634    0.0000 C   0  0  3  0  0  0  0  0  0  0  0  0
    6.9182    3.1565    0.0000 C   0  0  2  0  0  0  0  0  0  0  0  0
    9.5863    3.6601    0.0000 C   0  0  0  0  0  0  0  0  0  0  0  0
    6.9343    0.1150    0.0000 C   0  0  0  0  0  0  0  0  0  0  0  0
    6.0682    0.6150    0.0000 C   0  0  0  0  0  0  0  0  0  0  0  0
    6.9343   -0.8850    0.0000 C   0  0  0  0  0  0  0  0  0  0  0  0
    5.2022    0.1150    0.0000 C   0  0  0  0  0  0  0  0  0  0  0  0
    6.0682   -1.3850    0.0000 C   0  0  0  0  0  0  0  0  0  0  0  0
    5.2022   -0.8850    0.0000 C   0  0  0  0  0  0  0  0  0  0  0  0
    7.8443   -1.3919    0.0000 C   0  0  0  0  0  0  0  0  0  0  0  0
    6.0522   -2.4266    0.0000 C   0  0  0  0  0  0  0  0  0  0  0  0
    4.3083   -1.4197    0.0000 C   0  0  0  0  0  0  0  0  0  0  0  0
    4.3083    0.6496    0.0000 C   0  0  0  0  0  0  0  0  0  0  0  0
    7.8523   -2.4335    0.0000 C   0  0  0  0  0  0  0  0  0  0  0  0
    6.9502   -2.9543    0.0000 C   0  0  0  0  0  0  0  0  0  0  0  0
    3.4022   -0.9059    0.0000 C   0  0  0  0  0  0  0  0  0  0  0  0
    3.4022    0.1358    0.0000 C   0  0  0  0  0  0  0  0  0  0  0  0
    8.3348    1.3008    0.0000 H   0  0  0  0  0  0  0  0  0  0  0  0
    8.7019    1.5018    0.0000 H   0  0  0  0  0  0  0  0  0  0  0  0
    6.3950    2.4208    0.0000 H   0  0  0  0  0  0  0  0  0  0  0  0
    8.7195    3.7834    0.0000 H   0  0  0  0  0  0  0  0  0  0  0  0
    6.3855    2.8392    0.0000 H   0  0  0  0  0  0  0  0  0  0  0  0
    9.8942    3.1219    0.0000 H   0  0  0  0  0  0  0  0  0  0  0  0
   10.1244    3.9680    0.0000 H   0  0  0  0  0  0  0  0  0  0  0  0
    9.2784    4.1982    0.0000 H   0  0  0  0  0  0  0  0  0  0  0  0
   10.1110    1.9156    0.0000 H   0  0  0  0  0  0  0  0  0  0  0  0
    6.0393    4.2664    0.0000 H   0  0  0  0  0  0  0  0  0  0  0  0
    8.3776   -1.0757    0.0000 H   0  0  0  0  0  0  0  0  0  0  0  0
    4.3154    1.2696    0.0000 H   0  0  0  0  0  0  0  0  0  0  0  0
    5.1733   -3.5365    0.0000 H   0  0  0  0  0  0  0  0  0  0  0  0
    3.7865   -2.7358    0.0000 H   0  0  0  0  0  0  0  0  0  0  0  0
    7.4821   -4.2664    0.0000 H   0  0  0  0  0  0  0  0  0  0  0  0
    9.2560   -2.6181    0.0000 H   0  0  0  0  0  0  0  0  0  0  0  0
    2.0000   -1.1013    0.0000 H   0  0  0  0  0  0  0  0  0  0  0  0
    2.5405    1.2591    0.0000 H   0  0  0  0  0  0  0  0  0  0  0  0
  1 17  1  0  0  0  0
  1 18  1  0  0  0  0
  2 14  1  0  0  0  0
  2 20  1  0  0  0  0
  3 16  1  0  0  0  0
  3 21  1  0  0  0  0
  4 15  1  0  0  0  0
  4 42  1  0  0  0  0
 18  5  1  1  0  0  0
  5 43  1  0  0  0  0
  6 20  2  0  0  0  0
  7 21  2  0  0  0  0
  8 27  1  0  0  0  0
  8 46  1  0  0  0  0
  9 28  1  0  0  0  0
  9 47  1  0  0  0  0
 10 31  1  0  0  0  0
 10 48  1  0  0  0  0
 11 30  1  0  0  0  0
 11 49  1  0  0  0  0
 12 32  1  0  0  0  0
 12 50  1  0  0  0  0
 13 33  1  0  0  0  0
 13 51  1  0  0  0  0
 14 15  1  0  0  0  0
 14 16  1  0  0  0  0
 14 34  1  0  0  0  0
 15 17  1  0  0  0  0
 15 35  1  0  0  0  0
 16 18  1  0  0  0  0
 16 36  1  0  0  0  0
 17 19  1  0  0  0  0
 17 37  1  0  0  0  0
 18 38  1  0  0  0  0
 19 39  1  0  0  0  0
 19 40  1  0  0  0  0
 19 41  1  0  0  0  0
 20 22  1  0  0  0  0
 21 23  1  0  0  0  0
 22 24  1  0  0  0  0
 22 26  2  0  0  0  0
 23 25  1  0  0  0  0
 23 29  2  0  0  0  0
 24 25  1  0  0  0  0
 24 27  2  0  0  0  0
 25 28  2  0  0  0  0
 26 30  1  0  0  0  0
 26 44  1  0  0  0  0
 27 31  1  0  0  0  0
 28 32  1  0  0  0  0
 29 33  1  0  0  0  0
 29 45  1  0  0  0  0
 30 31  2  0  0  0  0
 32 33  2  0  0  0  0
M  END
> <PUBCHEM_COMPOUND_CID>
44317982

> <PUBCHEM_COMPOUND_CANONICALIZED>
1

> <PUBCHEM_CACTVS_COMPLEXITY>
762

> <PUBCHEM_CACTVS_HBOND_ACCEPTOR>
13

> <PUBCHEM_CACTVS_HBOND_DONOR>
8

> <PUBCHEM_CACTVS_ROTATABLE_BOND>
0

> <PUBCHEM_CACTVS_SUBSKEYS>
AAADceB4PAAAAAAAAAAAAAAAAAAAAAAAAAA0YIAAAAAAAACRQAAAGgAACAAADBSwmAMyDoAABgCIAiDSCAACAAAkIAAAiAEGiMgZNzKCNBqCcQElwBUPuYfK7PzOoAABCAAYQABAAAIQADCAAAAAAAAAAA==

> <PUBCHEM_IUPAC_OPENEYE_NAME>
(11S)-3,4,5,11,14,20,21,22-octahydroxy-13-methyl-9,12,16-trioxatetracyclo[16.4.0.02,7.010,15]docosa-1(22),2,4,6,18,20-hexaene-8,17-dione

> <PUBCHEM_IUPAC_CAS_NAME>
(11S)-3,4,5,11,14,20,21,22-octahydroxy-13-methyl-9,12,16-trioxatetracyclo[16.4.0.02,7.010,15]docosa-1(22),2,4,6,18,20-hexaene-8,17-dione

> <PUBCHEM_IUPAC_NAME_MARKUP>
(11<I>S</I>)-3,4,5,11,14,20,21,22-octahydroxy-13-methyl-9,12,16-trioxatetracyclo[16.4.0.0<SUP>2,7</SUP>.0<SUP>10,15</SUP>]docosa-1(22),2,4,6,18,20-hexaene-8,17-dione

> <PUBCHEM_IUPAC_NAME>
(11S)-3,4,5,11,14,20,21,22-octahydroxy-13-methyl-9,12,16-trioxatetracyclo[16.4.0.02,7.010,15]docosa-1(22),2,4,6,18,20-hexaene-8,17-dione

> <PUBCHEM_IUPAC_SYSTEMATIC_NAME>
(11S)-13-methyl-3,4,5,11,14,20,21,22-octakis(oxidanyl)-9,12,16-trioxatetracyclo[16.4.0.02,7.010,15]docosa-1(22),2,4,6,18,20-hexaene-8,17-dione

> <PUBCHEM_IUPAC_TRADITIONAL_NAME>
(11S)-3,4,5,11,14,20,21,22-octahydroxy-13-methyl-9,12,16-trioxatetracyclo[16.4.0.02,7.010,15]docosa-1(22),2,4,6,18,20-hexaene-8,17-quinone

> <PUBCHEM_IUPAC_INCHI>
InChI=1S/C20H18O13/c1-4-11(23)16-17(20(30)31-4)33-19(29)6-3-8(22)13(25)15(27)10(6)9-5(18(28)32-16)2-7(21)12(24)14(9)26/h2-4,11,16-17,20-27,30H,1H3/t4?,11?,16?,17?,20-/m0/s1

> <PUBCHEM_IUPAC_INCHIKEY>
VYHRDFXHRUUEDN-MLTIMCCRSA-N

> <PUBCHEM_XLOGP3_AA>
-0.1

> <PUBCHEM_EXACT_MASS>
466.07474062

> <PUBCHEM_MOLECULAR_FORMULA>
C20H18O13

> <PUBCHEM_MOLECULAR_WEIGHT>
466.3

> <PUBCHEM_SMILES>
CC1C(C2C([C@H](O1)O)OC(=O)C3=CC(=C(C(=C3C4=C(C(=C(C=C4C(=O)O2)O)O)O)O)O)O)O

> <PUBCHEM_OPENEYE_CAN_SMILES>
CC1C(C2C(C(O1)O)OC(=O)C3=CC(=C(C(=C3C4=C(C(=C(C=C4C(=O)O2)O)O)O)O)O)O)O

> <PUBCHEM_OPENEYE_ISO_SMILES>
CC1C(C2C([C@H](O1)O)OC(=O)C3=CC(=C(C(=C3C4=C(C(=C(C=C4C(=O)O2)O)O)O)O)O)O)O

> <PUBCHEM_CACTVS_TPSA>
224

> <PUBCHEM_MONOISOTOPIC_WEIGHT>
466.07474062

> <PUBCHEM_TOTAL_CHARGE>
0

> <PUBCHEM_HEAVY_ATOM_COUNT>
33

> <PUBCHEM_ATOM_DEF_STEREO_COUNT>
1

> <PUBCHEM_ATOM_UDEF_STEREO_COUNT>
4

> <PUBCHEM_BOND_DEF_STEREO_COUNT>
0

> <PUBCHEM_BOND_UDEF_STEREO_COUNT>
0

> <PUBCHEM_ISOTOPIC_ATOM_COUNT>
0

> <PUBCHEM_COMPONENT_COUNT>
1

> <PUBCHEM_CACTVS_TAUTO_COUNT>
-1

> <PUBCHEM_COORDINATE_TYPE>
1
5
255

> <PUBCHEM_BONDANNOTATIONS>
17  19  3
14  2  3
22  24  8
22  26  8
23  25  8
23  29  8
24  27  8
25  28  8
26  30  8
27  31  8
28  32  8
29  33  8
16  3  3
30  31  8
32  33  8
15  4  3
18  5  5

$$$$
