910649
  -OEChem-03202506592D

 32 35  0     0  0  0  0  0  0999 V2000
    7.7619    2.1350    0.0000 O   0  0  0  0  0  0  0  0  0  0  0  0
    4.6783    2.0737    0.0000 N   0  0  0  0  0  0  0  0  0  0  0  0
    7.7506    0.2999    0.0000 N   0  0  0  0  0  0  0  0  0  0  0  0
    4.6783    0.4642    0.0000 N   0  0  0  0  0  0  0  0  0  0  0  0
    6.3568   -0.5048    0.0000 N   0  0  0  0  0  0  0  0  0  0  0  0
    6.7619    2.1350    0.0000 N   0  0  0  0  0  0  0  0  0  0  0  0
    5.2619    1.2690    0.0000 C   0  0  0  0  0  0  0  0  0  0  0  0
    6.7619    0.4029    0.0000 C   0  0  0  0  0  0  0  0  0  0  0  0
    3.7320    1.7690    0.0000 C   0  0  0  0  0  0  0  0  0  0  0  0
    7.9598   -0.6719    0.0000 C   0  0  0  0  0  0  0  0  0  0  0  0
    6.2619    1.2690    0.0000 C   0  0  0  0  0  0  0  0  0  0  0  0
    3.7320    0.7690    0.0000 C   0  0  0  0  0  0  0  0  0  0  0  0
    7.0938   -1.1719    0.0000 C   0  0  0  0  0  0  0  0  0  0  0  0
    2.8660    2.2690    0.0000 C   0  0  0  0  0  0  0  0  0  0  0  0
    8.8258   -1.1719    0.0000 C   0  0  0  0  0  0  0  0  0  0  0  0
    2.8660    0.2690    0.0000 C   0  0  0  0  0  0  0  0  0  0  0  0
    7.0938   -2.1719    0.0000 C   0  0  0  0  0  0  0  0  0  0  0  0
    2.0000    1.7690    0.0000 C   0  0  0  0  0  0  0  0  0  0  0  0
    8.8258   -2.1719    0.0000 C   0  0  0  0  0  0  0  0  0  0  0  0
    2.0000    0.7690    0.0000 C   0  0  0  0  0  0  0  0  0  0  0  0
    7.9598   -2.6719    0.0000 C   0  0  0  0  0  0  0  0  0  0  0  0
    4.8709    2.6630    0.0000 H   0  0  0  0  0  0  0  0  0  0  0  0
    8.1647    0.7614    0.0000 H   0  0  0  0  0  0  0  0  0  0  0  0
    2.8660    2.8890    0.0000 H   0  0  0  0  0  0  0  0  0  0  0  0
    9.3628   -0.8619    0.0000 H   0  0  0  0  0  0  0  0  0  0  0  0
    2.8660   -0.3510    0.0000 H   0  0  0  0  0  0  0  0  0  0  0  0
    6.5568   -2.4819    0.0000 H   0  0  0  0  0  0  0  0  0  0  0  0
    1.4631    2.0790    0.0000 H   0  0  0  0  0  0  0  0  0  0  0  0
    9.3628   -2.4819    0.0000 H   0  0  0  0  0  0  0  0  0  0  0  0
    1.4631    0.4590    0.0000 H   0  0  0  0  0  0  0  0  0  0  0  0
    7.9598   -3.2919    0.0000 H   0  0  0  0  0  0  0  0  0  0  0  0
    8.0719    2.6719    0.0000 H   0  0  0  0  0  0  0  0  0  0  0  0
  1  6  1  0  0  0  0
  1 32  1  0  0  0  0
  2  7  1  0  0  0  0
  2  9  1  0  0  0  0
  2 22  1  0  0  0  0
  3  8  1  0  0  0  0
  3 10  1  0  0  0  0
  3 23  1  0  0  0  0
  4  7  2  0  0  0  0
  4 12  1  0  0  0  0
  5  8  2  0  0  0  0
  5 13  1  0  0  0  0
  6 11  2  0  0  0  0
  7 11  1  0  0  0  0
  8 11  1  0  0  0  0
  9 12  1  0  0  0  0
  9 14  2  0  0  0  0
 10 13  1  0  0  0  0
 10 15  2  0  0  0  0
 12 16  2  0  0  0  0
 13 17  2  0  0  0  0
 14 18  1  0  0  0  0
 14 24  1  0  0  0  0
 15 19  1  0  0  0  0
 15 25  1  0  0  0  0
 16 20  1  0  0  0  0
 16 26  1  0  0  0  0
 17 21  1  0  0  0  0
 17 27  1  0  0  0  0
 18 20  2  0  0  0  0
 18 28  1  0  0  0  0
 19 21  2  0  0  0  0
 19 29  1  0  0  0  0
 20 30  1  0  0  0  0
 21 31  1  0  0  0  0
M  END
> <PUBCHEM_COMPOUND_CID>
910649

> <PUBCHEM_COMPOUND_CANONICALIZED>
1

> <PUBCHEM_CACTVS_COMPLEXITY>
381

> <PUBCHEM_CACTVS_HBOND_ACCEPTOR>
4

> <PUBCHEM_CACTVS_HBOND_DONOR>
3

> <PUBCHEM_CACTVS_ROTATABLE_BOND>
2

> <PUBCHEM_CACTVS_SUBSKEYS>
AAADccBzoAAAAAAAAAAAAAAAAAAAAWLAAAAwYAAAAAAAAFgB/gAAHAAUCAAACAiBFwAx0LbZkACgASZiZACCgC2hEqAJmSAwdJiIaKLA2ZGUIAhokALIyCcQAAAAAAAAAAAAACAAAAAAAAAAQAAAAAAAAA==

> <PUBCHEM_IUPAC_OPENEYE_NAME>
bis(1H-benzimidazol-2-yl)methanone oxime

> <PUBCHEM_IUPAC_CAS_NAME>
bis(1H-benzimidazol-2-yl)methanone oxime

> <PUBCHEM_IUPAC_NAME_MARKUP>
<I>N</I>-[bis(1<I>H</I>-benzimidazol-2-yl)methylidene]hydroxylamine

> <PUBCHEM_IUPAC_NAME>
N-[bis(1H-benzimidazol-2-yl)methylidene]hydroxylamine

> <PUBCHEM_IUPAC_SYSTEMATIC_NAME>
N-[bis(1H-benzimidazol-2-yl)methylidene]hydroxylamine

> <PUBCHEM_IUPAC_TRADITIONAL_NAME>
bis(1H-benzimidazol-2-yl)methanone oxime

> <PUBCHEM_IUPAC_INCHI>
InChI=1S/C15H11N5O/c21-20-13(14-16-9-5-1-2-6-10(9)17-14)15-18-11-7-3-4-8-12(11)19-15/h1-8,21H,(H,16,17)(H,18,19)

> <PUBCHEM_IUPAC_INCHIKEY>
WIZFHSAFKKUPRU-UHFFFAOYSA-N

> <PUBCHEM_XLOGP3_AA>
3.3

> <PUBCHEM_EXACT_MASS>
277.09635999

> <PUBCHEM_MOLECULAR_FORMULA>
C15H11N5O

> <PUBCHEM_MOLECULAR_WEIGHT>
277.28

> <PUBCHEM_SMILES>
C1=CC=C2C(=C1)NC(=N2)C(=NO)C3=NC4=CC=CC=C4N3

> <PUBCHEM_OPENEYE_CAN_SMILES>
C1=CC=C2C(=C1)NC(=N2)C(=NO)C3=NC4=CC=CC=C4N3

> <PUBCHEM_OPENEYE_ISO_SMILES>
C1=CC=C2C(=C1)NC(=N2)C(=NO)C3=NC4=CC=CC=C4N3

> <PUBCHEM_CACTVS_TPSA>
90

> <PUBCHEM_MONOISOTOPIC_WEIGHT>
277.09635999

> <PUBCHEM_TOTAL_CHARGE>
0

> <PUBCHEM_HEAVY_ATOM_COUNT>
21

> <PUBCHEM_ATOM_DEF_STEREO_COUNT>
0

> <PUBCHEM_ATOM_UDEF_STEREO_COUNT>
0

> <PUBCHEM_BOND_DEF_STEREO_COUNT>
0

> <PUBCHEM_BOND_UDEF_STEREO_COUNT>
0

> <PUBCHEM_ISOTOPIC_ATOM_COUNT>
0

> <PUBCHEM_COMPONENT_COUNT>
1

> <PUBCHEM_CACTVS_TAUTO_COUNT>
-1

> <PUBCHEM_COORDINATE_TYPE>
1
5
255

> <PUBCHEM_BONDANNOTATIONS>
10  13  8
10  15  8
12  16  8
13  17  8
14  18  8
15  19  8
16  20  8
17  21  8
18  20  8
19  21  8
2  7  8
2  9  8
3  10  8
3  8  8
4  12  8
4  7  8
5  13  8
5  8  8
9  12  8
9  14  8

$$$$
