49830888
  -OEChem-03202503342D

 27 29  0     0  0  0  0  0  0999 V2000
    2.8660    3.1970    0.0000 F   0  0  0  0  0  0  0  0  0  0  0  0
    4.6783   -2.6077    0.0000 N   0  0  0  0  0  0  0  0  0  0  0  0
    2.0000   -1.3030    0.0000 N   0  0  0  0  0  0  0  0  0  0  0  0
    2.8660   -2.8030    0.0000 N   0  0  0  0  0  0  0  0  0  0  0  0
    3.7320   -1.3030    0.0000 C   0  0  0  0  0  0  0  0  0  0  0  0
    2.8660   -0.8030    0.0000 C   0  0  0  0  0  0  0  0  0  0  0  0
    2.8660    0.1970    0.0000 C   0  0  0  0  0  0  0  0  0  0  0  0
    3.7320   -2.3030    0.0000 C   0  0  0  0  0  0  0  0  0  0  0  0
    3.7320    0.6970    0.0000 C   0  0  0  0  0  0  0  0  0  0  0  0
    4.6783   -0.9982    0.0000 C   0  0  0  0  0  0  0  0  0  0  0  0
    3.7320    1.6970    0.0000 C   0  0  0  0  0  0  0  0  0  0  0  0
    2.0000    0.6970    0.0000 C   0  0  0  0  0  0  0  0  0  0  0  0
    5.2619   -1.8030    0.0000 C   0  0  0  0  0  0  0  0  0  0  0  0
    2.8660    2.1970    0.0000 C   0  0  0  0  0  0  0  0  0  0  0  0
    2.0000    1.6970    0.0000 C   0  0  0  0  0  0  0  0  0  0  0  0
    4.5981    2.1970    0.0000 C   0  0  0  0  0  0  0  0  0  0  0  0
    2.0000   -2.3030    0.0000 C   0  0  0  0  0  0  0  0  0  0  0  0
    4.2690    0.3870    0.0000 H   0  0  0  0  0  0  0  0  0  0  0  0
    4.8709   -0.4089    0.0000 H   0  0  0  0  0  0  0  0  0  0  0  0
    1.4631    0.3870    0.0000 H   0  0  0  0  0  0  0  0  0  0  0  0
    4.8709   -3.1970    0.0000 H   0  0  0  0  0  0  0  0  0  0  0  0
    5.8819   -1.8030    0.0000 H   0  0  0  0  0  0  0  0  0  0  0  0
    1.4631    2.0070    0.0000 H   0  0  0  0  0  0  0  0  0  0  0  0
    4.9081    1.6601    0.0000 H   0  0  0  0  0  0  0  0  0  0  0  0
    5.1350    2.5070    0.0000 H   0  0  0  0  0  0  0  0  0  0  0  0
    4.2881    2.7340    0.0000 H   0  0  0  0  0  0  0  0  0  0  0  0
    1.4631   -2.6130    0.0000 H   0  0  0  0  0  0  0  0  0  0  0  0
  1 14  1  0  0  0  0
  2  8  1  0  0  0  0
  2 13  1  0  0  0  0
  2 21  1  0  0  0  0
  3  6  1  0  0  0  0
  3 17  2  0  0  0  0
  4  8  2  0  0  0  0
  4 17  1  0  0  0  0
  5  6  2  0  0  0  0
  5  8  1  0  0  0  0
  5 10  1  0  0  0  0
  6  7  1  0  0  0  0
  7  9  2  0  0  0  0
  7 12  1  0  0  0  0
  9 11  1  0  0  0  0
  9 18  1  0  0  0  0
 10 13  2  0  0  0  0
 10 19  1  0  0  0  0
 11 14  2  0  0  0  0
 11 16  1  0  0  0  0
 12 15  2  0  0  0  0
 12 20  1  0  0  0  0
 13 22  1  0  0  0  0
 14 15  1  0  0  0  0
 15 23  1  0  0  0  0
 16 24  1  0  0  0  0
 16 25  1  0  0  0  0
 16 26  1  0  0  0  0
 17 27  1  0  0  0  0
M  END
> <PUBCHEM_COMPOUND_CID>
49830888

> <PUBCHEM_COMPOUND_CANONICALIZED>
1

> <PUBCHEM_CACTVS_COMPLEXITY>
273

> <PUBCHEM_CACTVS_HBOND_ACCEPTOR>
3

> <PUBCHEM_CACTVS_HBOND_DONOR>
1

> <PUBCHEM_CACTVS_ROTATABLE_BOND>
1

> <PUBCHEM_CACTVS_SUBSKEYS>
AAADccBzAQAAAAAAAAAAAAAAAAAAAWAAAAA8QAAAAAAAAFgB/AAAHQAQAAAADAjBHww/sN7JkACgAzZnZACCgCmxAqAJ2aA4ZJiIKOLA2dGEJAhokALIyCcQgMAOAAACAAAAAAAAAAQAAAAAAAAAAAAAAA==

> <PUBCHEM_IUPAC_OPENEYE_NAME>
4-(4-fluoro-3-methyl-phenyl)-7H-pyrrolo[2,3-d]pyrimidine

> <PUBCHEM_IUPAC_CAS_NAME>
4-(4-fluoro-3-methylphenyl)-7H-pyrrolo[2,3-d]pyrimidine

> <PUBCHEM_IUPAC_NAME_MARKUP>
4-(4-fluoro-3-methylphenyl)-7<I>H</I>-pyrrolo[2,3-d]pyrimidine

> <PUBCHEM_IUPAC_NAME>
4-(4-fluoro-3-methylphenyl)-7H-pyrrolo[2,3-d]pyrimidine

> <PUBCHEM_IUPAC_SYSTEMATIC_NAME>
4-(4-fluoranyl-3-methyl-phenyl)-7H-pyrrolo[2,3-d]pyrimidine

> <PUBCHEM_IUPAC_TRADITIONAL_NAME>
4-(4-fluoro-3-methyl-phenyl)-7H-pyrrolo[2,3-d]pyrimidine

> <PUBCHEM_IUPAC_INCHI>
InChI=1S/C13H10FN3/c1-8-6-9(2-3-11(8)14)12-10-4-5-15-13(10)17-7-16-12/h2-7H,1H3,(H,15,16,17)

> <PUBCHEM_IUPAC_INCHIKEY>
LZXPYCSHIFEZMR-UHFFFAOYSA-N

> <PUBCHEM_XLOGP3_AA>
2.8

> <PUBCHEM_EXACT_MASS>
227.08587549

> <PUBCHEM_MOLECULAR_FORMULA>
C13H10FN3

> <PUBCHEM_MOLECULAR_WEIGHT>
227.24

> <PUBCHEM_SMILES>
CC1=C(C=CC(=C1)C2=C3C=CNC3=NC=N2)F

> <PUBCHEM_OPENEYE_CAN_SMILES>
CC1=C(C=CC(=C1)C2=C3C=CNC3=NC=N2)F

> <PUBCHEM_OPENEYE_ISO_SMILES>
CC1=C(C=CC(=C1)C2=C3C=CNC3=NC=N2)F

> <PUBCHEM_CACTVS_TPSA>
41.6

> <PUBCHEM_MONOISOTOPIC_WEIGHT>
227.08587549

> <PUBCHEM_TOTAL_CHARGE>
0

> <PUBCHEM_HEAVY_ATOM_COUNT>
17

> <PUBCHEM_ATOM_DEF_STEREO_COUNT>
0

> <PUBCHEM_ATOM_UDEF_STEREO_COUNT>
0

> <PUBCHEM_BOND_DEF_STEREO_COUNT>
0

> <PUBCHEM_BOND_UDEF_STEREO_COUNT>
0

> <PUBCHEM_ISOTOPIC_ATOM_COUNT>
0

> <PUBCHEM_COMPONENT_COUNT>
1

> <PUBCHEM_CACTVS_TAUTO_COUNT>
-1

> <PUBCHEM_COORDINATE_TYPE>
1
5
255

> <PUBCHEM_BONDANNOTATIONS>
10  13  8
11  14  8
12  15  8
14  15  8
2  13  8
2  8  8
3  17  8
3  6  8
4  17  8
4  8  8
5  10  8
5  6  8
5  8  8
7  12  8
7  9  8
9  11  8

$$$$
