49830863
  -OEChem-03202504002D

 29 31  0     0  0  0  0  0  0999 V2000
    2.8660   -1.7500    0.0000 F   0  0  0  0  0  0  0  0  0  0  0  0
    6.3301   -0.7500    0.0000 N   0  0  0  0  0  0  0  0  0  0  0  0
    7.2764   -2.0547    0.0000 N   0  0  0  0  0  0  0  0  0  0  0  0
    7.8600   -1.2500    0.0000 N   0  0  0  0  0  0  0  0  0  0  0  0
    7.5870    0.5053    0.0000 N   0  0  0  0  0  0  0  0  0  0  0  0
    4.5981   -0.7500    0.0000 C   0  0  0  0  0  0  0  0  0  0  0  0
    3.7320   -0.2500    0.0000 C   0  0  0  0  0  0  0  0  0  0  0  0
    5.4641   -0.2500    0.0000 C   0  0  0  0  0  0  0  0  0  0  0  0
    6.3301   -1.7500    0.0000 C   0  0  0  0  0  0  0  0  0  0  0  0
    4.5981   -1.7500    0.0000 C   0  0  0  0  0  0  0  0  0  0  0  0
    3.7320    0.7500    0.0000 C   0  0  0  0  0  0  0  0  0  0  0  0
    5.4641   -2.2500    0.0000 C   0  0  0  0  0  0  0  0  0  0  0  0
    2.8660    1.2500    0.0000 C   0  0  0  0  0  0  0  0  0  0  0  0
    2.8660   -0.7500    0.0000 C   0  0  0  0  0  0  0  0  0  0  0  0
    7.2764   -0.4453    0.0000 C   0  0  0  0  0  0  0  0  0  0  0  0
    2.0000    0.7500    0.0000 C   0  0  0  0  0  0  0  0  0  0  0  0
    2.0000   -0.2500    0.0000 C   0  0  0  0  0  0  0  0  0  0  0  0
    2.8660    2.2500    0.0000 C   0  0  0  0  0  0  0  0  0  0  0  0
    5.4641    0.3700    0.0000 H   0  0  0  0  0  0  0  0  0  0  0  0
    4.0611   -2.0600    0.0000 H   0  0  0  0  0  0  0  0  0  0  0  0
    4.2690    1.0600    0.0000 H   0  0  0  0  0  0  0  0  0  0  0  0
    5.4641   -2.8700    0.0000 H   0  0  0  0  0  0  0  0  0  0  0  0
    1.4631    1.0600    0.0000 H   0  0  0  0  0  0  0  0  0  0  0  0
    1.4631   -0.5600    0.0000 H   0  0  0  0  0  0  0  0  0  0  0  0
    3.4860    2.2500    0.0000 H   0  0  0  0  0  0  0  0  0  0  0  0
    2.8660    2.8700    0.0000 H   0  0  0  0  0  0  0  0  0  0  0  0
    2.2460    2.2500    0.0000 H   0  0  0  0  0  0  0  0  0  0  0  0
    8.1937    0.6331    0.0000 H   0  0  0  0  0  0  0  0  0  0  0  0
    7.1730    0.9667    0.0000 H   0  0  0  0  0  0  0  0  0  0  0  0
  1 14  1  0  0  0  0
  2  8  1  0  0  0  0
  2  9  1  0  0  0  0
  2 15  1  0  0  0  0
  3  4  1  0  0  0  0
  3  9  2  0  0  0  0
  4 15  2  0  0  0  0
  5 15  1  0  0  0  0
  5 28  1  0  0  0  0
  5 29  1  0  0  0  0
  6  7  1  0  0  0  0
  6  8  2  0  0  0  0
  6 10  1  0  0  0  0
  7 11  1  0  0  0  0
  7 14  2  0  0  0  0
  8 19  1  0  0  0  0
  9 12  1  0  0  0  0
 10 12  2  0  0  0  0
 10 20  1  0  0  0  0
 11 13  2  0  0  0  0
 11 21  1  0  0  0  0
 12 22  1  0  0  0  0
 13 16  1  0  0  0  0
 13 18  1  0  0  0  0
 14 17  1  0  0  0  0
 16 17  2  0  0  0  0
 16 23  1  0  0  0  0
 17 24  1  0  0  0  0
 18 25  1  0  0  0  0
 18 26  1  0  0  0  0
 18 27  1  0  0  0  0
M  END
> <PUBCHEM_COMPOUND_CID>
49830863

> <PUBCHEM_COMPOUND_CANONICALIZED>
1

> <PUBCHEM_CACTVS_COMPLEXITY>
301

> <PUBCHEM_CACTVS_HBOND_ACCEPTOR>
4

> <PUBCHEM_CACTVS_HBOND_DONOR>
1

> <PUBCHEM_CACTVS_ROTATABLE_BOND>
1

> <PUBCHEM_CACTVS_SUBSKEYS>
AAADccBzgQAAAAAAAAAAAAAAAAAAAWAAAAA8QAAAAAAAAFgB8AAAHQAYAAAADADBGww/sJ9MGACiAjJnZACShCsxAqAd2CA4ZJiIKOLAmZGEoAhwiALIyCcQgMAOgAACAAAAAAAAAAQAAAAAAAAAAAAAAA==

> <PUBCHEM_IUPAC_OPENEYE_NAME>
6-(2-fluoro-5-methyl-phenyl)-[1,2,4]triazolo[4,3-a]pyridin-3-amine

> <PUBCHEM_IUPAC_CAS_NAME>
6-(2-fluoro-5-methylphenyl)-[1,2,4]triazolo[4,3-a]pyridin-3-amine

> <PUBCHEM_IUPAC_NAME_MARKUP>
6-(2-fluoro-5-methylphenyl)-[1,2,4]triazolo[4,3-a]pyridin-3-amine

> <PUBCHEM_IUPAC_NAME>
6-(2-fluoro-5-methylphenyl)-[1,2,4]triazolo[4,3-a]pyridin-3-amine

> <PUBCHEM_IUPAC_SYSTEMATIC_NAME>
6-(2-fluoranyl-5-methyl-phenyl)-[1,2,4]triazolo[4,3-a]pyridin-3-amine

> <PUBCHEM_IUPAC_TRADITIONAL_NAME>
[6-(2-fluoro-5-methyl-phenyl)-[1,2,4]triazolo[4,3-a]pyridin-3-yl]amine

> <PUBCHEM_IUPAC_INCHI>
InChI=1S/C13H11FN4/c1-8-2-4-11(14)10(6-8)9-3-5-12-16-17-13(15)18(12)7-9/h2-7H,1H3,(H2,15,17)

> <PUBCHEM_IUPAC_INCHIKEY>
XLXFTYZLDQSWSY-UHFFFAOYSA-N

> <PUBCHEM_XLOGP3_AA>
2.9

> <PUBCHEM_EXACT_MASS>
242.09677453

> <PUBCHEM_MOLECULAR_FORMULA>
C13H11FN4

> <PUBCHEM_MOLECULAR_WEIGHT>
242.25

> <PUBCHEM_SMILES>
CC1=CC(=C(C=C1)F)C2=CN3C(=NN=C3N)C=C2

> <PUBCHEM_OPENEYE_CAN_SMILES>
CC1=CC(=C(C=C1)F)C2=CN3C(=NN=C3N)C=C2

> <PUBCHEM_OPENEYE_ISO_SMILES>
CC1=CC(=C(C=C1)F)C2=CN3C(=NN=C3N)C=C2

> <PUBCHEM_CACTVS_TPSA>
56.2

> <PUBCHEM_MONOISOTOPIC_WEIGHT>
242.09677453

> <PUBCHEM_TOTAL_CHARGE>
0

> <PUBCHEM_HEAVY_ATOM_COUNT>
18

> <PUBCHEM_ATOM_DEF_STEREO_COUNT>
0

> <PUBCHEM_ATOM_UDEF_STEREO_COUNT>
0

> <PUBCHEM_BOND_DEF_STEREO_COUNT>
0

> <PUBCHEM_BOND_UDEF_STEREO_COUNT>
0

> <PUBCHEM_ISOTOPIC_ATOM_COUNT>
0

> <PUBCHEM_COMPONENT_COUNT>
1

> <PUBCHEM_CACTVS_TAUTO_COUNT>
-1

> <PUBCHEM_COORDINATE_TYPE>
1
5
255

> <PUBCHEM_BONDANNOTATIONS>
10  12  8
11  13  8
13  16  8
14  17  8
16  17  8
2  15  8
2  8  8
2  9  8
3  4  8
3  9  8
4  15  8
6  10  8
6  8  8
7  11  8
7  14  8
9  12  8

$$$$
