24905316
  -OEChem-03192523512D

 46 49  0     1  0  0  0  0  0999 V2000
    7.2566    2.6051    0.0000 O   0  0  0  0  0  0  0  0  0  0  0  0
    5.9209    4.0937    0.0000 O   0  0  0  0  0  0  0  0  0  0  0  0
    4.6783   -1.3178    0.0000 N   0  0  0  0  0  0  0  0  0  0  0  0
    5.2619   -0.5131    0.0000 N   0  0  0  0  0  0  0  0  0  0  0  0
    2.8660   -1.5131    0.0000 N   0  0  0  0  0  0  0  0  0  0  0  0
    2.0000   -0.0131    0.0000 N   0  0  0  0  0  0  0  0  0  0  0  0
    2.8660    1.4869    0.0000 N   0  0  0  0  0  0  0  0  0  0  0  0
    4.9889   -2.2684    0.0000 C   0  0  3  0  0  0  0  0  0  0  0  0
    4.9917   -3.8864    0.0000 C   0  0  3  0  0  0  0  0  0  0  0  0
    4.4026   -3.0784    0.0000 C   0  0  0  0  0  0  0  0  0  0  0  0
    5.9405   -2.5757    0.0000 C   0  0  0  0  0  0  0  0  0  0  0  0
    5.9422   -3.5757    0.0000 C   0  0  0  0  0  0  0  0  0  0  0  0
    4.6844   -4.8380    0.0000 C   0  0  0  0  0  0  0  0  0  0  0  0
    3.7320   -1.0131    0.0000 C   0  0  0  0  0  0  0  0  0  0  0  0
    3.7320   -0.0131    0.0000 C   0  0  0  0  0  0  0  0  0  0  0  0
    4.6783    0.2916    0.0000 C   0  0  0  0  0  0  0  0  0  0  0  0
    2.8660    0.4869    0.0000 C   0  0  0  0  0  0  0  0  0  0  0  0
    4.9889    1.2421    0.0000 C   0  0  0  0  0  0  0  0  0  0  0  0
    2.0000   -1.0131    0.0000 C   0  0  0  0  0  0  0  0  0  0  0  0
    5.9674    1.4484    0.0000 C   0  0  0  0  0  0  0  0  0  0  0  0
    4.3211    1.9864    0.0000 C   0  0  0  0  0  0  0  0  0  0  0  0
    6.2781    2.3989    0.0000 C   0  0  0  0  0  0  0  0  0  0  0  0
    4.6318    2.9370    0.0000 C   0  0  0  0  0  0  0  0  0  0  0  0
    5.6103    3.1432    0.0000 C   0  0  0  0  0  0  0  0  0  0  0  0
    5.2531    4.8380    0.0000 C   0  0  0  0  0  0  0  0  0  0  0  0
    5.4266   -1.8292    0.0000 H   0  0  0  0  0  0  0  0  0  0  0  0
    5.4309   -4.3240    0.0000 H   0  0  0  0  0  0  0  0  0  0  0  0
    3.9411   -2.6643    0.0000 H   0  0  0  0  0  0  0  0  0  0  0  0
    3.9425   -3.4941    0.0000 H   0  0  0  0  0  0  0  0  0  0  0  0
    6.5572   -2.6395    0.0000 H   0  0  0  0  0  0  0  0  0  0  0  0
    6.0684   -1.9691    0.0000 H   0  0  0  0  0  0  0  0  0  0  0  0
    6.0722   -4.1820    0.0000 H   0  0  0  0  0  0  0  0  0  0  0  0
    6.5587   -3.5099    0.0000 H   0  0  0  0  0  0  0  0  0  0  0  0
    4.0944   -4.6474    0.0000 H   0  0  0  0  0  0  0  0  0  0  0  0
    4.4938   -5.4280    0.0000 H   0  0  0  0  0  0  0  0  0  0  0  0
    5.2744   -5.0286    0.0000 H   0  0  0  0  0  0  0  0  0  0  0  0
    1.4631   -1.3231    0.0000 H   0  0  0  0  0  0  0  0  0  0  0  0
    6.3815    0.9869    0.0000 H   0  0  0  0  0  0  0  0  0  0  0  0
    3.7144    1.8586    0.0000 H   0  0  0  0  0  0  0  0  0  0  0  0
    2.3291    1.7969    0.0000 H   0  0  0  0  0  0  0  0  0  0  0  0
    3.4030    1.7969    0.0000 H   0  0  0  0  0  0  0  0  0  0  0  0
    4.2177    3.3984    0.0000 H   0  0  0  0  0  0  0  0  0  0  0  0
    7.6707    2.1436    0.0000 H   0  0  0  0  0  0  0  0  0  0  0  0
    5.7145    5.2521    0.0000 H   0  0  0  0  0  0  0  0  0  0  0  0
    4.8390    5.2995    0.0000 H   0  0  0  0  0  0  0  0  0  0  0  0
    4.7916    4.4239    0.0000 H   0  0  0  0  0  0  0  0  0  0  0  0
  1 22  1  0  0  0  0
  1 43  1  0  0  0  0
  2 24  1  0  0  0  0
  2 25  1  0  0  0  0
  3  4  1  0  0  0  0
  3  8  1  0  0  0  0
  3 14  1  0  0  0  0
  4 16  2  0  0  0  0
  5 14  2  0  0  0  0
  5 19  1  0  0  0  0
  6 17  1  0  0  0  0
  6 19  2  0  0  0  0
  7 17  1  0  0  0  0
  7 40  1  0  0  0  0
  7 41  1  0  0  0  0
  8 10  1  0  0  0  0
  8 11  1  0  0  0  0
  8 26  1  0  0  0  0
  9 10  1  0  0  0  0
  9 12  1  0  0  0  0
  9 13  1  0  0  0  0
  9 27  1  0  0  0  0
 10 28  1  0  0  0  0
 10 29  1  0  0  0  0
 11 12  1  0  0  0  0
 11 30  1  0  0  0  0
 11 31  1  0  0  0  0
 12 32  1  0  0  0  0
 12 33  1  0  0  0  0
 13 34  1  0  0  0  0
 13 35  1  0  0  0  0
 13 36  1  0  0  0  0
 14 15  1  0  0  0  0
 15 16  1  0  0  0  0
 15 17  2  0  0  0  0
 16 18  1  0  0  0  0
 18 20  2  0  0  0  0
 18 21  1  0  0  0  0
 19 37  1  0  0  0  0
 20 22  1  0  0  0  0
 20 38  1  0  0  0  0
 21 23  2  0  0  0  0
 21 39  1  0  0  0  0
 22 24  2  0  0  0  0
 23 24  1  0  0  0  0
 23 42  1  0  0  0  0
 25 44  1  0  0  0  0
 25 45  1  0  0  0  0
 25 46  1  0  0  0  0
M  END
> <PUBCHEM_COMPOUND_CID>
24905316

> <PUBCHEM_COMPOUND_CANONICALIZED>
1

> <PUBCHEM_CACTVS_COMPLEXITY>
467

> <PUBCHEM_CACTVS_HBOND_ACCEPTOR>
6

> <PUBCHEM_CACTVS_HBOND_DONOR>
2

> <PUBCHEM_CACTVS_ROTATABLE_BOND>
3

> <PUBCHEM_CACTVS_SUBSKEYS>
AAADceB7sAAAAAAAAAAAAAAAAAAAAeIAAAA8QAAAAAAAAFgB/AAAHgAYCAAADSzBnwY3tt5IFgCiAyZjZACSjCsxoKAd2CAuzJiNLqLG+duE9CtsyBPL+Cew0PEOIAABAAAAQABAAAIAAACAACAAAAAAAA==

> <PUBCHEM_IUPAC_OPENEYE_NAME>
5-[4-amino-1-(3-methylcyclopentyl)pyrazolo[3,4-d]pyrimidin-3-yl]-2-methoxy-phenol

> <PUBCHEM_IUPAC_CAS_NAME>
5-[4-amino-1-(3-methylcyclopentyl)-3-pyrazolo[3,4-d]pyrimidinyl]-2-methoxyphenol

> <PUBCHEM_IUPAC_NAME_MARKUP>
5-[4-amino-1-(3-methylcyclopentyl)pyrazolo[3,4-d]pyrimidin-3-yl]-2-methoxyphenol

> <PUBCHEM_IUPAC_NAME>
5-[4-amino-1-(3-methylcyclopentyl)pyrazolo[3,4-d]pyrimidin-3-yl]-2-methoxyphenol

> <PUBCHEM_IUPAC_SYSTEMATIC_NAME>
5-[4-azanyl-1-(3-methylcyclopentyl)pyrazolo[3,4-d]pyrimidin-3-yl]-2-methoxy-phenol

> <PUBCHEM_IUPAC_TRADITIONAL_NAME>
5-[4-amino-1-(3-methylcyclopentyl)pyrazolo[3,4-d]pyrimidin-3-yl]-2-methoxy-phenol

> <PUBCHEM_IUPAC_INCHI>
InChI=1S/C18H21N5O2/c1-10-3-5-12(7-10)23-18-15(17(19)20-9-21-18)16(22-23)11-4-6-14(25-2)13(24)8-11/h4,6,8-10,12,24H,3,5,7H2,1-2H3,(H2,19,20,21)

> <PUBCHEM_IUPAC_INCHIKEY>
RHFWTFDTRBFIHU-UHFFFAOYSA-N

> <PUBCHEM_XLOGP3_AA>
2.7

> <PUBCHEM_EXACT_MASS>
339.16952493

> <PUBCHEM_MOLECULAR_FORMULA>
C18H21N5O2

> <PUBCHEM_MOLECULAR_WEIGHT>
339.4

> <PUBCHEM_SMILES>
CC1CCC(C1)N2C3=NC=NC(=C3C(=N2)C4=CC(=C(C=C4)OC)O)N

> <PUBCHEM_OPENEYE_CAN_SMILES>
CC1CCC(C1)N2C3=NC=NC(=C3C(=N2)C4=CC(=C(C=C4)OC)O)N

> <PUBCHEM_OPENEYE_ISO_SMILES>
CC1CCC(C1)N2C3=NC=NC(=C3C(=N2)C4=CC(=C(C=C4)OC)O)N

> <PUBCHEM_CACTVS_TPSA>
99.1

> <PUBCHEM_MONOISOTOPIC_WEIGHT>
339.16952493

> <PUBCHEM_TOTAL_CHARGE>
0

> <PUBCHEM_HEAVY_ATOM_COUNT>
25

> <PUBCHEM_ATOM_DEF_STEREO_COUNT>
0

> <PUBCHEM_ATOM_UDEF_STEREO_COUNT>
2

> <PUBCHEM_BOND_DEF_STEREO_COUNT>
0

> <PUBCHEM_BOND_UDEF_STEREO_COUNT>
0

> <PUBCHEM_ISOTOPIC_ATOM_COUNT>
0

> <PUBCHEM_COMPONENT_COUNT>
1

> <PUBCHEM_CACTVS_TAUTO_COUNT>
-1

> <PUBCHEM_COORDINATE_TYPE>
1
5
255

> <PUBCHEM_BONDANNOTATIONS>
14  15  8
15  16  8
15  17  8
18  20  8
18  21  8
20  22  8
21  23  8
22  24  8
23  24  8
3  14  8
3  4  8
8  3  3
4  16  8
5  14  8
5  19  8
6  17  8
6  19  8
9  13  3

$$$$
