23646814
  -OEChem-03202504322D

 49 51  0     0  0  0  0  0  0999 V2000
    6.3301   -2.0000    0.0000 Cl  0  0  0  0  0  0  0  0  0  0  0  0
    2.8660    0.0000    0.0000 O   0  0  0  0  0  0  0  0  0  0  0  0
    6.3301    1.0000    0.0000 O   0  0  0  0  0  0  0  0  0  0  0  0
    3.7320   -3.5000    0.0000 N   0  0  0  0  0  0  0  0  0  0  0  0
    4.5981    1.0000    0.0000 N   0  0  0  0  0  0  0  0  0  0  0  0
    5.4641    2.5000    0.0000 N   0  0  0  0  0  0  0  0  0  0  0  0
    6.3301    4.0000    0.0000 N   0  0  0  0  0  0  0  0  0  0  0  0
    8.0622    3.0000    0.0000 N   0  0  0  0  0  0  0  0  0  0  0  0
    9.7942    5.0000    0.0000 N   0  0  0  0  0  0  0  0  0  0  0  0
    2.8660   -3.0000    0.0000 C   0  0  0  0  0  0  0  0  0  0  0  0
    3.7320   -4.5000    0.0000 C   0  0  0  0  0  0  0  0  0  0  0  0
    2.0000   -3.5000    0.0000 C   0  0  0  0  0  0  0  0  0  0  0  0
    2.8660   -5.0000    0.0000 C   0  0  0  0  0  0  0  0  0  0  0  0
    2.0000   -4.5000    0.0000 C   0  0  0  0  0  0  0  0  0  0  0  0
    4.5981   -3.0000    0.0000 C   0  0  0  0  0  0  0  0  0  0  0  0
    4.5981   -2.0000    0.0000 C   0  0  0  0  0  0  0  0  0  0  0  0
    3.7320   -1.5000    0.0000 C   0  0  0  0  0  0  0  0  0  0  0  0
    5.4641   -1.5000    0.0000 C   0  0  0  0  0  0  0  0  0  0  0  0
    3.7320   -0.5000    0.0000 C   0  0  0  0  0  0  0  0  0  0  0  0
    5.4641   -0.5000    0.0000 C   0  0  0  0  0  0  0  0  0  0  0  0
    4.5981    0.0000    0.0000 C   0  0  0  0  0  0  0  0  0  0  0  0
    5.4641    1.5000    0.0000 C   0  0  0  0  0  0  0  0  0  0  0  0
    2.0000   -0.5000    0.0000 C   0  0  0  0  0  0  0  0  0  0  0  0
    6.3301    3.0000    0.0000 C   0  0  0  0  0  0  0  0  0  0  0  0
    7.1962    2.5000    0.0000 C   0  0  0  0  0  0  0  0  0  0  0  0
    7.1962    4.5000    0.0000 C   0  0  0  0  0  0  0  0  0  0  0  0
    8.0622    4.0000    0.0000 C   0  0  0  0  0  0  0  0  0  0  0  0
    8.9282    4.5000    0.0000 C   0  0  0  0  0  0  0  0  0  0  0  0
    3.2646   -2.5250    0.0000 H   0  0  0  0  0  0  0  0  0  0  0  0
    2.4675   -2.5250    0.0000 H   0  0  0  0  0  0  0  0  0  0  0  0
    3.9441   -5.0826    0.0000 H   0  0  0  0  0  0  0  0  0  0  0  0
    4.3426   -4.3923    0.0000 H   0  0  0  0  0  0  0  0  0  0  0  0
    1.7880   -2.9174    0.0000 H   0  0  0  0  0  0  0  0  0  0  0  0
    1.3894   -3.6077    0.0000 H   0  0  0  0  0  0  0  0  0  0  0  0
    2.4675   -5.4750    0.0000 H   0  0  0  0  0  0  0  0  0  0  0  0
    3.2646   -5.4750    0.0000 H   0  0  0  0  0  0  0  0  0  0  0  0
    1.3894   -4.3923    0.0000 H   0  0  0  0  0  0  0  0  0  0  0  0
    1.7880   -5.0826    0.0000 H   0  0  0  0  0  0  0  0  0  0  0  0
    4.8101   -3.5826    0.0000 H   0  0  0  0  0  0  0  0  0  0  0  0
    5.2087   -2.8923    0.0000 H   0  0  0  0  0  0  0  0  0  0  0  0
    3.1951   -1.8100    0.0000 H   0  0  0  0  0  0  0  0  0  0  0  0
    6.0010   -0.1900    0.0000 H   0  0  0  0  0  0  0  0  0  0  0  0
    4.0611    1.3100    0.0000 H   0  0  0  0  0  0  0  0  0  0  0  0
    1.6900    0.0369    0.0000 H   0  0  0  0  0  0  0  0  0  0  0  0
    1.4631   -0.8100    0.0000 H   0  0  0  0  0  0  0  0  0  0  0  0
    2.3100   -1.0369    0.0000 H   0  0  0  0  0  0  0  0  0  0  0  0
    4.9272    2.8100    0.0000 H   0  0  0  0  0  0  0  0  0  0  0  0
    7.1962    1.8800    0.0000 H   0  0  0  0  0  0  0  0  0  0  0  0
    7.1962    5.1200    0.0000 H   0  0  0  0  0  0  0  0  0  0  0  0
  1 18  1  0  0  0  0
  2 19  1  0  0  0  0
  2 23  1  0  0  0  0
  3 22  2  0  0  0  0
  4 10  1  0  0  0  0
  4 11  1  0  0  0  0
  4 15  1  0  0  0  0
  5 21  1  0  0  0  0
  5 22  1  0  0  0  0
  5 43  1  0  0  0  0
  6 22  1  0  0  0  0
  6 24  1  0  0  0  0
  6 47  1  0  0  0  0
  7 24  2  0  0  0  0
  7 26  1  0  0  0  0
  8 25  2  0  0  0  0
  8 27  1  0  0  0  0
  9 28  3  0  0  0  0
 10 12  1  0  0  0  0
 10 29  1  0  0  0  0
 10 30  1  0  0  0  0
 11 13  1  0  0  0  0
 11 31  1  0  0  0  0
 11 32  1  0  0  0  0
 12 14  1  0  0  0  0
 12 33  1  0  0  0  0
 12 34  1  0  0  0  0
 13 14  1  0  0  0  0
 13 35  1  0  0  0  0
 13 36  1  0  0  0  0
 14 37  1  0  0  0  0
 14 38  1  0  0  0  0
 15 16  1  0  0  0  0
 15 39  1  0  0  0  0
 15 40  1  0  0  0  0
 16 17  2  0  0  0  0
 16 18  1  0  0  0  0
 17 19  1  0  0  0  0
 17 41  1  0  0  0  0
 18 20  2  0  0  0  0
 19 21  2  0  0  0  0
 20 21  1  0  0  0  0
 20 42  1  0  0  0  0
 23 44  1  0  0  0  0
 23 45  1  0  0  0  0
 23 46  1  0  0  0  0
 24 25  1  0  0  0  0
 25 48  1  0  0  0  0
 26 27  2  0  0  0  0
 26 49  1  0  0  0  0
 27 28  1  0  0  0  0
M  END
> <PUBCHEM_COMPOUND_CID>
23646814

> <PUBCHEM_COMPOUND_CANONICALIZED>
1

> <PUBCHEM_CACTVS_COMPLEXITY>
564

> <PUBCHEM_CACTVS_HBOND_ACCEPTOR>
6

> <PUBCHEM_CACTVS_HBOND_DONOR>
2

> <PUBCHEM_CACTVS_ROTATABLE_BOND>
5

> <PUBCHEM_CACTVS_SUBSKEYS>
AAADceB7sAAEAAAAAAAAAAAAAAAAAAAAAAA8WIAAAAAAAAABwAAAHgIQAAAADA7BniY/9pPIFAC4BzZndACiiC0xNyAB2AA/foiO5mLFs5uVMChs1RPY6CewwBAOCCABAAIBEAAQQAIABAIgAAAAAAAAAA==

> <PUBCHEM_IUPAC_OPENEYE_NAME>
1-[5-chloro-2-methoxy-4-(1-piperidylmethyl)phenyl]-3-(5-cyanopyrazin-2-yl)urea

> <PUBCHEM_IUPAC_CAS_NAME>
1-[5-chloro-2-methoxy-4-(1-piperidinylmethyl)phenyl]-3-(5-cyano-2-pyrazinyl)urea

> <PUBCHEM_IUPAC_NAME_MARKUP>
1-[5-chloro-2-methoxy-4-(piperidin-1-ylmethyl)phenyl]-3-(5-cyanopyrazin-2-yl)urea

> <PUBCHEM_IUPAC_NAME>
1-[5-chloro-2-methoxy-4-(piperidin-1-ylmethyl)phenyl]-3-(5-cyanopyrazin-2-yl)urea

> <PUBCHEM_IUPAC_SYSTEMATIC_NAME>
1-[5-chloranyl-2-methoxy-4-(piperidin-1-ylmethyl)phenyl]-3-(5-cyanopyrazin-2-yl)urea

> <PUBCHEM_IUPAC_TRADITIONAL_NAME>
1-[5-chloro-2-methoxy-4-(piperidinomethyl)phenyl]-3-(5-cyanopyrazin-2-yl)urea

> <PUBCHEM_IUPAC_INCHI>
InChI=1S/C19H21ClN6O2/c1-28-17-7-13(12-26-5-3-2-4-6-26)15(20)8-16(17)24-19(27)25-18-11-22-14(9-21)10-23-18/h7-8,10-11H,2-6,12H2,1H3,(H2,23,24,25,27)

> <PUBCHEM_IUPAC_INCHIKEY>
MJMWZFLAXXUPEE-UHFFFAOYSA-N

> <PUBCHEM_XLOGP3_AA>
2

> <PUBCHEM_EXACT_MASS>
400.1414516

> <PUBCHEM_MOLECULAR_FORMULA>
C19H21ClN6O2

> <PUBCHEM_MOLECULAR_WEIGHT>
400.9

> <PUBCHEM_SMILES>
COC1=C(C=C(C(=C1)CN2CCCCC2)Cl)NC(=O)NC3=NC=C(N=C3)C#N

> <PUBCHEM_OPENEYE_CAN_SMILES>
COC1=C(C=C(C(=C1)CN2CCCCC2)Cl)NC(=O)NC3=NC=C(N=C3)C#N

> <PUBCHEM_OPENEYE_ISO_SMILES>
COC1=C(C=C(C(=C1)CN2CCCCC2)Cl)NC(=O)NC3=NC=C(N=C3)C#N

> <PUBCHEM_CACTVS_TPSA>
103

> <PUBCHEM_MONOISOTOPIC_WEIGHT>
400.1414516

> <PUBCHEM_TOTAL_CHARGE>
0

> <PUBCHEM_HEAVY_ATOM_COUNT>
28

> <PUBCHEM_ATOM_DEF_STEREO_COUNT>
0

> <PUBCHEM_ATOM_UDEF_STEREO_COUNT>
0

> <PUBCHEM_BOND_DEF_STEREO_COUNT>
0

> <PUBCHEM_BOND_UDEF_STEREO_COUNT>
0

> <PUBCHEM_ISOTOPIC_ATOM_COUNT>
0

> <PUBCHEM_COMPONENT_COUNT>
1

> <PUBCHEM_CACTVS_TAUTO_COUNT>
-1

> <PUBCHEM_COORDINATE_TYPE>
1
5
255

> <PUBCHEM_BONDANNOTATIONS>
16  17  8
16  18  8
17  19  8
18  20  8
19  21  8
20  21  8
24  25  8
26  27  8
7  24  8
7  26  8
8  25  8
8  27  8

$$$$
