49830565
  -OEChem-03202502472D

 43 46  0     0  0  0  0  0  0999 V2000
    8.5836   -0.9038    0.0000 S   0  0  0  0  0  0  0  0  0  0  0  0
    6.5000    0.7670    0.0000 O   0  0  0  0  0  0  0  0  0  0  0  0
    2.5000   -2.6971    0.0000 O   0  0  0  0  0  0  0  0  0  0  0  0
   11.0687   -0.0990    0.0000 N   0  0  0  0  0  0  0  0  0  0  0  0
   10.4809   -0.9081    0.0000 N   0  0  0  0  0  0  0  0  0  0  0  0
    6.5000   -0.9651    0.0000 N   0  0  0  0  0  0  0  0  0  0  0  0
    9.5298    0.4010    0.0000 C   0  0  0  0  0  0  0  0  0  0  0  0
   10.4809    0.7100    0.0000 C   0  0  0  0  0  0  0  0  0  0  0  0
    9.5298   -0.5990    0.0000 C   0  0  0  0  0  0  0  0  0  0  0  0
    8.5836    0.7057    0.0000 C   0  0  0  0  0  0  0  0  0  0  0  0
    8.0000   -0.0990    0.0000 C   0  0  0  0  0  0  0  0  0  0  0  0
   10.7899    1.6610    0.0000 C   0  0  0  0  0  0  0  0  0  0  0  0
    5.5000   -0.9651    0.0000 C   0  0  0  0  0  0  0  0  0  0  0  0
    7.0000   -0.0990    0.0000 C   0  0  0  0  0  0  0  0  0  0  0  0
    5.0000   -1.8311    0.0000 C   0  0  0  0  0  0  0  0  0  0  0  0
   10.1208    2.4042    0.0000 C   0  0  0  0  0  0  0  0  0  0  0  0
   11.7681    1.8689    0.0000 C   0  0  0  0  0  0  0  0  0  0  0  0
    4.0000   -1.8311    0.0000 C   0  0  0  0  0  0  0  0  0  0  0  0
    5.5000   -2.6971    0.0000 C   0  0  0  0  0  0  0  0  0  0  0  0
   10.4298    3.3552    0.0000 C   0  0  0  0  0  0  0  0  0  0  0  0
   12.0771    2.8200    0.0000 C   0  0  0  0  0  0  0  0  0  0  0  0
    3.5000   -2.6971    0.0000 C   0  0  0  0  0  0  0  0  0  0  0  0
   11.4079    3.5631    0.0000 C   0  0  0  0  0  0  0  0  0  0  0  0
    5.0000   -3.5631    0.0000 C   0  0  0  0  0  0  0  0  0  0  0  0
    4.0000   -3.5631    0.0000 C   0  0  0  0  0  0  0  0  0  0  0  0
    2.0000   -3.5631    0.0000 C   0  0  0  0  0  0  0  0  0  0  0  0
    8.3910    1.2950    0.0000 H   0  0  0  0  0  0  0  0  0  0  0  0
   11.6887   -0.0990    0.0000 H   0  0  0  0  0  0  0  0  0  0  0  0
    5.6077   -0.3545    0.0000 H   0  0  0  0  0  0  0  0  0  0  0  0
    4.9174   -0.7530    0.0000 H   0  0  0  0  0  0  0  0  0  0  0  0
    6.8100   -1.5020    0.0000 H   0  0  0  0  0  0  0  0  0  0  0  0
    9.5143    2.2753    0.0000 H   0  0  0  0  0  0  0  0  0  0  0  0
   12.1829    1.4082    0.0000 H   0  0  0  0  0  0  0  0  0  0  0  0
    3.6900   -1.2942    0.0000 H   0  0  0  0  0  0  0  0  0  0  0  0
    6.1200   -2.6971    0.0000 H   0  0  0  0  0  0  0  0  0  0  0  0
   10.0149    3.8160    0.0000 H   0  0  0  0  0  0  0  0  0  0  0  0
   12.6835    2.9489    0.0000 H   0  0  0  0  0  0  0  0  0  0  0  0
    5.3100   -4.1001    0.0000 H   0  0  0  0  0  0  0  0  0  0  0  0
   11.5995    4.1528    0.0000 H   0  0  0  0  0  0  0  0  0  0  0  0
    3.6900   -4.1001    0.0000 H   0  0  0  0  0  0  0  0  0  0  0  0
    1.4631   -3.2531    0.0000 H   0  0  0  0  0  0  0  0  0  0  0  0
    1.6900   -4.1001    0.0000 H   0  0  0  0  0  0  0  0  0  0  0  0
    2.5369   -3.8731    0.0000 H   0  0  0  0  0  0  0  0  0  0  0  0
  1  9  1  0  0  0  0
  1 11  1  0  0  0  0
  2 14  2  0  0  0  0
  3 22  1  0  0  0  0
  3 26  1  0  0  0  0
  4  5  1  0  0  0  0
  4  8  1  0  0  0  0
  4 28  1  0  0  0  0
  5  9  2  0  0  0  0
  6 13  1  0  0  0  0
  6 14  1  0  0  0  0
  6 31  1  0  0  0  0
  7  8  2  0  0  0  0
  7  9  1  0  0  0  0
  7 10  1  0  0  0  0
  8 12  1  0  0  0  0
 10 11  2  0  0  0  0
 10 27  1  0  0  0  0
 11 14  1  0  0  0  0
 12 16  2  0  0  0  0
 12 17  1  0  0  0  0
 13 15  1  0  0  0  0
 13 29  1  0  0  0  0
 13 30  1  0  0  0  0
 15 18  2  0  0  0  0
 15 19  1  0  0  0  0
 16 20  1  0  0  0  0
 16 32  1  0  0  0  0
 17 21  2  0  0  0  0
 17 33  1  0  0  0  0
 18 22  1  0  0  0  0
 18 34  1  0  0  0  0
 19 24  2  0  0  0  0
 19 35  1  0  0  0  0
 20 23  2  0  0  0  0
 20 36  1  0  0  0  0
 21 23  1  0  0  0  0
 21 37  1  0  0  0  0
 22 25  2  0  0  0  0
 23 39  1  0  0  0  0
 24 25  1  0  0  0  0
 24 38  1  0  0  0  0
 25 40  1  0  0  0  0
 26 41  1  0  0  0  0
 26 42  1  0  0  0  0
 26 43  1  0  0  0  0
M  END
> <PUBCHEM_COMPOUND_CID>
49830565

> <PUBCHEM_COMPOUND_CANONICALIZED>
1

> <PUBCHEM_CACTVS_COMPLEXITY>
486

> <PUBCHEM_CACTVS_HBOND_ACCEPTOR>
4

> <PUBCHEM_CACTVS_HBOND_DONOR>
2

> <PUBCHEM_CACTVS_ROTATABLE_BOND>
5

> <PUBCHEM_CACTVS_SUBSKEYS>
AAADceB7MABAAAAAAAAAAAAAAAAAAWJAAAAwYAAAAAAWAAAB/AAAHgQYAAAADAzB3gYyh9LjBAiuAyVyUACTDIBkKBBYubkuTNgMJrKk9duEtSxkzhGo6Ye4ydCeAAABAAAAAAAAAAIAAAAAAAAAAAAAAA==

> <PUBCHEM_IUPAC_OPENEYE_NAME>
N-[(3-methoxyphenyl)methyl]-3-phenyl-2H-thieno[2,3-c]pyrazole-5-carboxamide

> <PUBCHEM_IUPAC_CAS_NAME>
N-[(3-methoxyphenyl)methyl]-3-phenyl-2H-thieno[2,3-c]pyrazole-5-carboxamide

> <PUBCHEM_IUPAC_NAME_MARKUP>
<I>N</I>-[(3-methoxyphenyl)methyl]-3-phenyl-2<I>H</I>-thieno[2,3-c]pyrazole-5-carboxamide

> <PUBCHEM_IUPAC_NAME>
N-[(3-methoxyphenyl)methyl]-3-phenyl-2H-thieno[2,3-c]pyrazole-5-carboxamide

> <PUBCHEM_IUPAC_SYSTEMATIC_NAME>
N-[(3-methoxyphenyl)methyl]-3-phenyl-2H-thieno[2,3-c]pyrazole-5-carboxamide

> <PUBCHEM_IUPAC_TRADITIONAL_NAME>
N-m-anisyl-3-phenyl-2H-thieno[2,3-c]pyrazole-5-carboxamide

> <PUBCHEM_IUPAC_INCHI>
InChI=1S/C20H17N3O2S/c1-25-15-9-5-6-13(10-15)12-21-19(24)17-11-16-18(22-23-20(16)26-17)14-7-3-2-4-8-14/h2-11H,12H2,1H3,(H,21,24)(H,22,23)

> <PUBCHEM_IUPAC_INCHIKEY>
GQLWKGVBOIYMTN-UHFFFAOYSA-N

> <PUBCHEM_XLOGP3_AA>
4.3

> <PUBCHEM_EXACT_MASS>
363.10414797

> <PUBCHEM_MOLECULAR_FORMULA>
C20H17N3O2S

> <PUBCHEM_MOLECULAR_WEIGHT>
363.4

> <PUBCHEM_SMILES>
COC1=CC=CC(=C1)CNC(=O)C2=CC3=C(NN=C3S2)C4=CC=CC=C4

> <PUBCHEM_OPENEYE_CAN_SMILES>
COC1=CC=CC(=C1)CNC(=O)C2=CC3=C(NN=C3S2)C4=CC=CC=C4

> <PUBCHEM_OPENEYE_ISO_SMILES>
COC1=CC=CC(=C1)CNC(=O)C2=CC3=C(NN=C3S2)C4=CC=CC=C4

> <PUBCHEM_CACTVS_TPSA>
95.3

> <PUBCHEM_MONOISOTOPIC_WEIGHT>
363.10414797

> <PUBCHEM_TOTAL_CHARGE>
0

> <PUBCHEM_HEAVY_ATOM_COUNT>
26

> <PUBCHEM_ATOM_DEF_STEREO_COUNT>
0

> <PUBCHEM_ATOM_UDEF_STEREO_COUNT>
0

> <PUBCHEM_BOND_DEF_STEREO_COUNT>
0

> <PUBCHEM_BOND_UDEF_STEREO_COUNT>
0

> <PUBCHEM_ISOTOPIC_ATOM_COUNT>
0

> <PUBCHEM_COMPONENT_COUNT>
1

> <PUBCHEM_CACTVS_TAUTO_COUNT>
-1

> <PUBCHEM_COORDINATE_TYPE>
1
5
255

> <PUBCHEM_BONDANNOTATIONS>
1  11  8
1  9  8
10  11  8
12  16  8
12  17  8
15  18  8
15  19  8
16  20  8
17  21  8
18  22  8
19  24  8
20  23  8
21  23  8
22  25  8
24  25  8
4  5  8
4  8  8
5  9  8
7  10  8
7  8  8
7  9  8

$$$$
