49830793
  -OEChem-03202501432D

 27 29  0     0  0  0  0  0  0999 V2000
    5.5443   -2.3047    0.0000 S   0  0  0  0  0  0  0  0  0  0  0  0
    2.0000    2.5000    0.0000 F   0  0  0  0  0  0  0  0  0  0  0  0
    7.6279   -2.3660    0.0000 O   0  0  0  0  0  0  0  0  0  0  0  0
    7.6279   -0.6340    0.0000 O   0  0  0  0  0  0  0  0  0  0  0  0
    2.8660   -2.0000    0.0000 N   0  0  0  0  0  0  0  0  0  0  0  0
    4.5981   -1.0000    0.0000 C   0  0  0  0  0  0  0  0  0  0  0  0
    3.7320   -0.5000    0.0000 C   0  0  0  0  0  0  0  0  0  0  0  0
    4.5981   -2.0000    0.0000 C   0  0  0  0  0  0  0  0  0  0  0  0
    3.7320    0.5000    0.0000 C   0  0  0  0  0  0  0  0  0  0  0  0
    5.5443   -0.6953    0.0000 C   0  0  0  0  0  0  0  0  0  0  0  0
    6.1279   -1.5000    0.0000 C   0  0  0  0  0  0  0  0  0  0  0  0
    2.8660   -1.0000    0.0000 C   0  0  0  0  0  0  0  0  0  0  0  0
    3.7320   -2.5000    0.0000 C   0  0  0  0  0  0  0  0  0  0  0  0
    2.8660    1.0000    0.0000 C   0  0  0  0  0  0  0  0  0  0  0  0
    4.5981    1.0000    0.0000 C   0  0  0  0  0  0  0  0  0  0  0  0
    2.8660    2.0000    0.0000 C   0  0  0  0  0  0  0  0  0  0  0  0
    4.5981    2.0000    0.0000 C   0  0  0  0  0  0  0  0  0  0  0  0
    3.7320    2.5000    0.0000 C   0  0  0  0  0  0  0  0  0  0  0  0
    7.1279   -1.5000    0.0000 C   0  0  0  0  0  0  0  0  0  0  0  0
    5.7369   -0.1059    0.0000 H   0  0  0  0  0  0  0  0  0  0  0  0
    2.3291   -0.6900    0.0000 H   0  0  0  0  0  0  0  0  0  0  0  0
    3.7320   -3.1200    0.0000 H   0  0  0  0  0  0  0  0  0  0  0  0
    2.3291    0.6900    0.0000 H   0  0  0  0  0  0  0  0  0  0  0  0
    5.1350    0.6900    0.0000 H   0  0  0  0  0  0  0  0  0  0  0  0
    5.1350    2.3100    0.0000 H   0  0  0  0  0  0  0  0  0  0  0  0
    3.7320    3.1200    0.0000 H   0  0  0  0  0  0  0  0  0  0  0  0
    8.2479   -2.3660    0.0000 H   0  0  0  0  0  0  0  0  0  0  0  0
  1  8  1  0  0  0  0
  1 11  1  0  0  0  0
  2 16  1  0  0  0  0
  3 19  1  0  0  0  0
  3 27  1  0  0  0  0
  4 19  2  0  0  0  0
  5 12  1  0  0  0  0
  5 13  2  0  0  0  0
  6  7  1  0  0  0  0
  6  8  2  0  0  0  0
  6 10  1  0  0  0  0
  7  9  1  0  0  0  0
  7 12  2  0  0  0  0
  8 13  1  0  0  0  0
  9 14  2  0  0  0  0
  9 15  1  0  0  0  0
 10 11  2  0  0  0  0
 10 20  1  0  0  0  0
 11 19  1  0  0  0  0
 12 21  1  0  0  0  0
 13 22  1  0  0  0  0
 14 16  1  0  0  0  0
 14 23  1  0  0  0  0
 15 17  2  0  0  0  0
 15 24  1  0  0  0  0
 16 18  2  0  0  0  0
 17 18  1  0  0  0  0
 17 25  1  0  0  0  0
 18 26  1  0  0  0  0
M  END
> <PUBCHEM_COMPOUND_CID>
49830793

> <PUBCHEM_COMPOUND_CANONICALIZED>
1

> <PUBCHEM_CACTVS_COMPLEXITY>
354

> <PUBCHEM_CACTVS_HBOND_ACCEPTOR>
5

> <PUBCHEM_CACTVS_HBOND_DONOR>
1

> <PUBCHEM_CACTVS_ROTATABLE_BOND>
2

> <PUBCHEM_CACTVS_SUBSKEYS>
AAADccByMQBAAAAAAAAAAAAAAAAAASAAAAA8QAAAAAAAAFgB/AAAHwQACAAADADB2gw8idIIEgisAjD3TACDoKA1CDBI2D0oTNgIJnLglZGEcQhkwAHo2YeYyPCOgAAAAAAAAAAAAAAAAAAAAAAAAAAAAA==

> <PUBCHEM_IUPAC_OPENEYE_NAME>
4-(3-fluorophenyl)thieno[2,3-c]pyridine-2-carboxylic acid

> <PUBCHEM_IUPAC_CAS_NAME>
4-(3-fluorophenyl)-2-thieno[2,3-c]pyridinecarboxylic acid

> <PUBCHEM_IUPAC_NAME_MARKUP>
4-(3-fluorophenyl)thieno[2,3-c]pyridine-2-carboxylic acid

> <PUBCHEM_IUPAC_NAME>
4-(3-fluorophenyl)thieno[2,3-c]pyridine-2-carboxylic acid

> <PUBCHEM_IUPAC_SYSTEMATIC_NAME>
4-(3-fluorophenyl)thieno[2,3-c]pyridine-2-carboxylic acid

> <PUBCHEM_IUPAC_TRADITIONAL_NAME>
4-(3-fluorophenyl)thieno[2,3-c]pyridine-2-carboxylic acid

> <PUBCHEM_IUPAC_INCHI>
InChI=1S/C14H8FNO2S/c15-9-3-1-2-8(4-9)11-6-16-7-13-10(11)5-12(19-13)14(17)18/h1-7H,(H,17,18)

> <PUBCHEM_IUPAC_INCHIKEY>
ZCAOFAAOUBUUBJ-UHFFFAOYSA-N

> <PUBCHEM_XLOGP3_AA>
3.5

> <PUBCHEM_EXACT_MASS>
273.02597783

> <PUBCHEM_MOLECULAR_FORMULA>
C14H8FNO2S

> <PUBCHEM_MOLECULAR_WEIGHT>
273.28

> <PUBCHEM_SMILES>
C1=CC(=CC(=C1)F)C2=CN=CC3=C2C=C(S3)C(=O)O

> <PUBCHEM_OPENEYE_CAN_SMILES>
C1=CC(=CC(=C1)F)C2=CN=CC3=C2C=C(S3)C(=O)O

> <PUBCHEM_OPENEYE_ISO_SMILES>
C1=CC(=CC(=C1)F)C2=CN=CC3=C2C=C(S3)C(=O)O

> <PUBCHEM_CACTVS_TPSA>
78.4

> <PUBCHEM_MONOISOTOPIC_WEIGHT>
273.02597783

> <PUBCHEM_TOTAL_CHARGE>
0

> <PUBCHEM_HEAVY_ATOM_COUNT>
19

> <PUBCHEM_ATOM_DEF_STEREO_COUNT>
0

> <PUBCHEM_ATOM_UDEF_STEREO_COUNT>
0

> <PUBCHEM_BOND_DEF_STEREO_COUNT>
0

> <PUBCHEM_BOND_UDEF_STEREO_COUNT>
0

> <PUBCHEM_ISOTOPIC_ATOM_COUNT>
0

> <PUBCHEM_COMPONENT_COUNT>
1

> <PUBCHEM_CACTVS_TAUTO_COUNT>
-1

> <PUBCHEM_COORDINATE_TYPE>
1
5
255

> <PUBCHEM_BONDANNOTATIONS>
1  11  8
1  8  8
10  11  8
14  16  8
15  17  8
16  18  8
17  18  8
5  12  8
5  13  8
6  10  8
6  7  8
6  8  8
7  12  8
8  13  8
9  14  8
9  15  8

$$$$
