16757525
  -OEChem-03202506552D

 34 36  0     1  0  0  0  0  0999 V2000
    2.5369    2.8845    0.0000 F   0  0  0  0  0  0  0  0  0  0  0  0
    3.4030   -2.6155    0.0000 O   0  0  0  0  0  0  0  0  0  0  0  0
    5.2152    0.1892    0.0000 N   0  0  0  0  0  0  0  0  0  0  0  0
    2.5369   -1.1155    0.0000 N   0  0  0  0  0  0  0  0  0  0  0  0
    7.2988   -1.4815    0.0000 N   0  0  0  0  0  0  0  0  0  0  0  0
    8.7988   -0.6155    0.0000 N   0  0  0  0  0  0  0  0  0  0  0  0
    8.7988   -2.3476    0.0000 N   0  0  0  0  0  0  0  0  0  0  0  0
    3.4030    0.3845    0.0000 C   0  0  2  0  0  0  0  0  0  0  0  0
    4.2690   -0.1155    0.0000 C   0  0  0  0  0  0  0  0  0  0  0  0
    2.5369   -0.1155    0.0000 C   0  0  0  0  0  0  0  0  0  0  0  0
    3.4030    1.3845    0.0000 C   0  0  0  0  0  0  0  0  0  0  0  0
    4.2690   -1.1155    0.0000 C   0  0  0  0  0  0  0  0  0  0  0  0
    3.4030   -1.6155    0.0000 C   0  0  0  0  0  0  0  0  0  0  0  0
    5.7988   -0.6155    0.0000 C   0  0  0  0  0  0  0  0  0  0  0  0
    5.2152   -1.4202    0.0000 C   0  0  0  0  0  0  0  0  0  0  0  0
    2.5369    1.8845    0.0000 C   0  0  0  0  0  0  0  0  0  0  0  0
    6.7988   -0.6155    0.0000 C   0  0  0  0  0  0  0  0  0  0  0  0
    7.2988    0.2505    0.0000 C   0  0  0  0  0  0  0  0  0  0  0  0
    8.2988    0.2505    0.0000 C   0  0  0  0  0  0  0  0  0  0  0  0
    8.2988   -1.4815    0.0000 C   0  0  0  0  0  0  0  0  0  0  0  0
    3.9399    0.6945    0.0000 H   0  0  0  0  0  0  0  0  0  0  0  0
    2.3249    0.4671    0.0000 H   0  0  0  0  0  0  0  0  0  0  0  0
    1.9264   -0.2232    0.0000 H   0  0  0  0  0  0  0  0  0  0  0  0
    4.0135    1.2768    0.0000 H   0  0  0  0  0  0  0  0  0  0  0  0
    3.6150    1.9671    0.0000 H   0  0  0  0  0  0  0  0  0  0  0  0
    5.4078    0.7785    0.0000 H   0  0  0  0  0  0  0  0  0  0  0  0
    2.0000   -1.4255    0.0000 H   0  0  0  0  0  0  0  0  0  0  0  0
    5.4078   -2.0096    0.0000 H   0  0  0  0  0  0  0  0  0  0  0  0
    1.9264    1.9922    0.0000 H   0  0  0  0  0  0  0  0  0  0  0  0
    2.3249    1.3019    0.0000 H   0  0  0  0  0  0  0  0  0  0  0  0
    6.9888    0.7875    0.0000 H   0  0  0  0  0  0  0  0  0  0  0  0
    8.6088    0.7875    0.0000 H   0  0  0  0  0  0  0  0  0  0  0  0
    9.4188   -2.3476    0.0000 H   0  0  0  0  0  0  0  0  0  0  0  0
    8.4888   -2.8845    0.0000 H   0  0  0  0  0  0  0  0  0  0  0  0
  1 16  1  0  0  0  0
  2 13  2  0  0  0  0
  3  9  1  0  0  0  0
  3 14  1  0  0  0  0
  3 26  1  0  0  0  0
  4 10  1  0  0  0  0
  4 13  1  0  0  0  0
  4 27  1  0  0  0  0
  5 17  2  0  0  0  0
  5 20  1  0  0  0  0
  6 19  1  0  0  0  0
  6 20  2  0  0  0  0
  7 20  1  0  0  0  0
  7 33  1  0  0  0  0
  7 34  1  0  0  0  0
  8  9  1  0  0  0  0
  8 10  1  0  0  0  0
  8 11  1  6  0  0  0
  8 21  1  0  0  0  0
  9 12  2  0  0  0  0
 10 22  1  0  0  0  0
 10 23  1  0  0  0  0
 11 16  1  0  0  0  0
 11 24  1  0  0  0  0
 11 25  1  0  0  0  0
 12 13  1  0  0  0  0
 12 15  1  0  0  0  0
 14 15  2  0  0  0  0
 14 17  1  0  0  0  0
 15 28  1  0  0  0  0
 16 29  1  0  0  0  0
 16 30  1  0  0  0  0
 17 18  1  0  0  0  0
 18 19  2  0  0  0  0
 18 31  1  0  0  0  0
 19 32  1  0  0  0  0
M  END
> <PUBCHEM_COMPOUND_CID>
16757525

> <PUBCHEM_COMPOUND_CANONICALIZED>
1

> <PUBCHEM_CACTVS_COMPLEXITY>
369

> <PUBCHEM_CACTVS_HBOND_ACCEPTOR>
5

> <PUBCHEM_CACTVS_HBOND_DONOR>
3

> <PUBCHEM_CACTVS_ROTATABLE_BOND>
3

> <PUBCHEM_CACTVS_SUBSKEYS>
AAADccBzoQAAAAAAAAAAAAAAAAAAAWAAAAAsWAAAAAAAAFgB4AAAHwAQAAAADQjBngQ9kJbJkACoAzV3dACCgCk1AqAJ2aE4ZNiIaPrA3NGUJYholgLIyeccicCeAAAAAAAAAAAAAAAAAAAAAAAAAAAAAA==

> <PUBCHEM_IUPAC_OPENEYE_NAME>
(7S)-2-(2-aminopyrimidin-4-yl)-7-(2-fluoroethyl)-1,5,6,7-tetrahydropyrrolo[3,2-c]pyridin-4-one

> <PUBCHEM_IUPAC_CAS_NAME>
(7S)-2-(2-amino-4-pyrimidinyl)-7-(2-fluoroethyl)-1,5,6,7-tetrahydropyrrolo[3,2-c]pyridin-4-one

> <PUBCHEM_IUPAC_NAME_MARKUP>
(7<I>S</I>)-2-(2-aminopyrimidin-4-yl)-7-(2-fluoroethyl)-1,5,6,7-tetrahydropyrrolo[3,2-c]pyridin-4-one

> <PUBCHEM_IUPAC_NAME>
(7S)-2-(2-aminopyrimidin-4-yl)-7-(2-fluoroethyl)-1,5,6,7-tetrahydropyrrolo[3,2-c]pyridin-4-one

> <PUBCHEM_IUPAC_SYSTEMATIC_NAME>
(7S)-2-(2-azanylpyrimidin-4-yl)-7-(2-fluoranylethyl)-1,5,6,7-tetrahydropyrrolo[3,2-c]pyridin-4-one

> <PUBCHEM_IUPAC_TRADITIONAL_NAME>
(7S)-2-(2-aminopyrimidin-4-yl)-7-(2-fluoroethyl)-1,5,6,7-tetrahydropyrrolo[3,2-c]pyridin-4-one

> <PUBCHEM_IUPAC_INCHI>
InChI=1S/C13H14FN5O/c14-3-1-7-6-17-12(20)8-5-10(18-11(7)8)9-2-4-16-13(15)19-9/h2,4-5,7,18H,1,3,6H2,(H,17,20)(H2,15,16,19)/t7-/m0/s1

> <PUBCHEM_IUPAC_INCHIKEY>
LCBAQTCTQXHTJG-ZETCQYMHSA-N

> <PUBCHEM_XLOGP3_AA>
0.2

> <PUBCHEM_EXACT_MASS>
275.11823825

> <PUBCHEM_MOLECULAR_FORMULA>
C13H14FN5O

> <PUBCHEM_MOLECULAR_WEIGHT>
275.28

> <PUBCHEM_SMILES>
C1[C@@H](C2=C(C=C(N2)C3=NC(=NC=C3)N)C(=O)N1)CCF

> <PUBCHEM_OPENEYE_CAN_SMILES>
C1C(C2=C(C=C(N2)C3=NC(=NC=C3)N)C(=O)N1)CCF

> <PUBCHEM_OPENEYE_ISO_SMILES>
C1[C@@H](C2=C(C=C(N2)C3=NC(=NC=C3)N)C(=O)N1)CCF

> <PUBCHEM_CACTVS_TPSA>
96.7

> <PUBCHEM_MONOISOTOPIC_WEIGHT>
275.11823825

> <PUBCHEM_TOTAL_CHARGE>
0

> <PUBCHEM_HEAVY_ATOM_COUNT>
20

> <PUBCHEM_ATOM_DEF_STEREO_COUNT>
1

> <PUBCHEM_ATOM_UDEF_STEREO_COUNT>
0

> <PUBCHEM_BOND_DEF_STEREO_COUNT>
0

> <PUBCHEM_BOND_UDEF_STEREO_COUNT>
0

> <PUBCHEM_ISOTOPIC_ATOM_COUNT>
0

> <PUBCHEM_COMPONENT_COUNT>
1

> <PUBCHEM_CACTVS_TAUTO_COUNT>
-1

> <PUBCHEM_COORDINATE_TYPE>
1
5
255

> <PUBCHEM_BONDANNOTATIONS>
12  15  8
14  15  8
17  18  8
18  19  8
3  14  8
3  9  8
5  17  8
5  20  8
6  19  8
6  20  8
8  11  6
9  12  8

$$$$
