49830877
  -OEChem-03202503152D

 44 47  0     0  0  0  0  0  0999 V2000
    3.4030    0.0591    0.0000 S   0  0  0  0  0  0  0  0  0  0  0  0
    2.9030    0.9251    0.0000 O   0  0  0  0  0  0  0  0  0  0  0  0
    3.9030   -0.8069    0.0000 O   0  0  0  0  0  0  0  0  0  0  0  0
   10.4114    0.2544    0.0000 N   0  0  0  0  0  0  0  0  0  0  0  0
    8.5991    0.0591    0.0000 N   0  0  0  0  0  0  0  0  0  0  0  0
    6.8671    0.0591    0.0000 N   0  0  0  0  0  0  0  0  0  0  0  0
    7.7331    1.5591    0.0000 N   0  0  0  0  0  0  0  0  0  0  0  0
    2.5369   -0.4409    0.0000 N   0  0  0  0  0  0  0  0  0  0  0  0
   10.7220   -0.6961    0.0000 C   0  0  0  0  0  0  0  0  0  0  0  0
    9.4651    0.5591    0.0000 C   0  0  0  0  0  0  0  0  0  0  0  0
    9.4651    1.5591    0.0000 C   0  0  0  0  0  0  0  0  0  0  0  0
   10.9950    1.0591    0.0000 C   0  0  0  0  0  0  0  0  0  0  0  0
   11.7005   -0.9024    0.0000 C   0  0  0  0  0  0  0  0  0  0  0  0
   10.4114    1.8638    0.0000 C   0  0  0  0  0  0  0  0  0  0  0  0
    7.7331    0.5591    0.0000 C   0  0  0  0  0  0  0  0  0  0  0  0
    8.5991    2.0591    0.0000 C   0  0  0  0  0  0  0  0  0  0  0  0
    6.0010    0.5591    0.0000 C   0  0  0  0  0  0  0  0  0  0  0  0
   12.0112   -1.8529    0.0000 C   0  0  0  0  0  0  0  0  0  0  0  0
   12.3684   -0.1581    0.0000 C   0  0  0  0  0  0  0  0  0  0  0  0
    4.2690    0.5591    0.0000 C   0  0  0  0  0  0  0  0  0  0  0  0
    5.1350    0.0591    0.0000 C   0  0  0  0  0  0  0  0  0  0  0  0
    6.0010    1.5591    0.0000 C   0  0  0  0  0  0  0  0  0  0  0  0
    4.2690    1.5591    0.0000 C   0  0  0  0  0  0  0  0  0  0  0  0
   12.9897   -2.0591    0.0000 C   0  0  0  0  0  0  0  0  0  0  0  0
   13.3469   -0.3643    0.0000 C   0  0  0  0  0  0  0  0  0  0  0  0
    5.1350    2.0591    0.0000 C   0  0  0  0  0  0  0  0  0  0  0  0
   13.6575   -1.3148    0.0000 C   0  0  0  0  0  0  0  0  0  0  0  0
   10.1082   -0.7835    0.0000 H   0  0  0  0  0  0  0  0  0  0  0  0
   10.7015   -1.3158    0.0000 H   0  0  0  0  0  0  0  0  0  0  0  0
   11.6150    1.0591    0.0000 H   0  0  0  0  0  0  0  0  0  0  0  0
   10.6040    2.4532    0.0000 H   0  0  0  0  0  0  0  0  0  0  0  0
    8.5991    2.6791    0.0000 H   0  0  0  0  0  0  0  0  0  0  0  0
    6.8671   -0.5609    0.0000 H   0  0  0  0  0  0  0  0  0  0  0  0
   11.5971   -2.3144    0.0000 H   0  0  0  0  0  0  0  0  0  0  0  0
   12.1758    0.4313    0.0000 H   0  0  0  0  0  0  0  0  0  0  0  0
    5.1350   -0.5609    0.0000 H   0  0  0  0  0  0  0  0  0  0  0  0
    6.5380    1.8691    0.0000 H   0  0  0  0  0  0  0  0  0  0  0  0
    3.7320    1.8691    0.0000 H   0  0  0  0  0  0  0  0  0  0  0  0
   13.1823   -2.6484    0.0000 H   0  0  0  0  0  0  0  0  0  0  0  0
   13.7609    0.0972    0.0000 H   0  0  0  0  0  0  0  0  0  0  0  0
    5.1350    2.6791    0.0000 H   0  0  0  0  0  0  0  0  0  0  0  0
   14.2642   -1.4427    0.0000 H   0  0  0  0  0  0  0  0  0  0  0  0
    2.0000   -0.1309    0.0000 H   0  0  0  0  0  0  0  0  0  0  0  0
    2.5369   -1.0609    0.0000 H   0  0  0  0  0  0  0  0  0  0  0  0
  1  2  2  0  0  0  0
  1  3  2  0  0  0  0
  1  8  1  0  0  0  0
  1 20  1  0  0  0  0
  4  9  1  0  0  0  0
  4 10  1  0  0  0  0
  4 12  1  0  0  0  0
  5 10  2  0  0  0  0
  5 15  1  0  0  0  0
  6 15  1  0  0  0  0
  6 17  1  0  0  0  0
  6 33  1  0  0  0  0
  7 15  2  0  0  0  0
  7 16  1  0  0  0  0
  8 43  1  0  0  0  0
  8 44  1  0  0  0  0
  9 13  1  0  0  0  0
  9 28  1  0  0  0  0
  9 29  1  0  0  0  0
 10 11  1  0  0  0  0
 11 14  1  0  0  0  0
 11 16  2  0  0  0  0
 12 14  2  0  0  0  0
 12 30  1  0  0  0  0
 13 18  2  0  0  0  0
 13 19  1  0  0  0  0
 14 31  1  0  0  0  0
 16 32  1  0  0  0  0
 17 21  2  0  0  0  0
 17 22  1  0  0  0  0
 18 24  1  0  0  0  0
 18 34  1  0  0  0  0
 19 25  2  0  0  0  0
 19 35  1  0  0  0  0
 20 21  1  0  0  0  0
 20 23  2  0  0  0  0
 21 36  1  0  0  0  0
 22 26  2  0  0  0  0
 22 37  1  0  0  0  0
 23 26  1  0  0  0  0
 23 38  1  0  0  0  0
 24 27  2  0  0  0  0
 24 39  1  0  0  0  0
 25 27  1  0  0  0  0
 25 40  1  0  0  0  0
 26 41  1  0  0  0  0
 27 42  1  0  0  0  0
M  END
> <PUBCHEM_COMPOUND_CID>
49830877

> <PUBCHEM_COMPOUND_CANONICALIZED>
1

> <PUBCHEM_CACTVS_COMPLEXITY>
589

> <PUBCHEM_CACTVS_HBOND_ACCEPTOR>
6

> <PUBCHEM_CACTVS_HBOND_DONOR>
2

> <PUBCHEM_CACTVS_ROTATABLE_BOND>
5

> <PUBCHEM_CACTVS_SUBSKEYS>
AAADceB7sABAAAAAAAAAAAAAAAAAAWAAAAA8YIAAAAAAAFgB/AAAHAQQQAAADAjBWwQ98d/MEAKgAjZnZHDCgDkxAqAJ2Dg4ZJiIKOLA2dGEJAxokALIyCcQgAAOAAAAACAAAAAAAAAAQAAAAAAAAAAAAA==

> <PUBCHEM_IUPAC_OPENEYE_NAME>
3-[(7-benzylpyrrolo[2,3-d]pyrimidin-2-yl)amino]benzenesulfonamide

> <PUBCHEM_IUPAC_CAS_NAME>
3-[[7-(phenylmethyl)-2-pyrrolo[2,3-d]pyrimidinyl]amino]benzenesulfonamide

> <PUBCHEM_IUPAC_NAME_MARKUP>
3-[(7-benzylpyrrolo[2,3-d]pyrimidin-2-yl)amino]benzenesulfonamide

> <PUBCHEM_IUPAC_NAME>
3-[(7-benzylpyrrolo[2,3-d]pyrimidin-2-yl)amino]benzenesulfonamide

> <PUBCHEM_IUPAC_SYSTEMATIC_NAME>
3-[[7-(phenylmethyl)pyrrolo[2,3-d]pyrimidin-2-yl]amino]benzenesulfonamide

> <PUBCHEM_IUPAC_TRADITIONAL_NAME>
3-[(7-benzylpyrrolo[2,3-d]pyrimidin-2-yl)amino]benzenesulfonamide

> <PUBCHEM_IUPAC_INCHI>
InChI=1S/C19H17N5O2S/c20-27(25,26)17-8-4-7-16(11-17)22-19-21-12-15-9-10-24(18(15)23-19)13-14-5-2-1-3-6-14/h1-12H,13H2,(H2,20,25,26)(H,21,22,23)

> <PUBCHEM_IUPAC_INCHIKEY>
AIQDZMUPVYDVLB-UHFFFAOYSA-N

> <PUBCHEM_XLOGP3_AA>
2.6

> <PUBCHEM_EXACT_MASS>
379.11029598

> <PUBCHEM_MOLECULAR_FORMULA>
C19H17N5O2S

> <PUBCHEM_MOLECULAR_WEIGHT>
379.4

> <PUBCHEM_SMILES>
C1=CC=C(C=C1)CN2C=CC3=CN=C(N=C32)NC4=CC(=CC=C4)S(=O)(=O)N

> <PUBCHEM_OPENEYE_CAN_SMILES>
C1=CC=C(C=C1)CN2C=CC3=CN=C(N=C32)NC4=CC(=CC=C4)S(=O)(=O)N

> <PUBCHEM_OPENEYE_ISO_SMILES>
C1=CC=C(C=C1)CN2C=CC3=CN=C(N=C32)NC4=CC(=CC=C4)S(=O)(=O)N

> <PUBCHEM_CACTVS_TPSA>
111

> <PUBCHEM_MONOISOTOPIC_WEIGHT>
379.11029598

> <PUBCHEM_TOTAL_CHARGE>
0

> <PUBCHEM_HEAVY_ATOM_COUNT>
27

> <PUBCHEM_ATOM_DEF_STEREO_COUNT>
0

> <PUBCHEM_ATOM_UDEF_STEREO_COUNT>
0

> <PUBCHEM_BOND_DEF_STEREO_COUNT>
0

> <PUBCHEM_BOND_UDEF_STEREO_COUNT>
0

> <PUBCHEM_ISOTOPIC_ATOM_COUNT>
0

> <PUBCHEM_COMPONENT_COUNT>
1

> <PUBCHEM_CACTVS_TAUTO_COUNT>
-1

> <PUBCHEM_COORDINATE_TYPE>
1
5
255

> <PUBCHEM_BONDANNOTATIONS>
10  11  8
11  14  8
11  16  8
12  14  8
13  18  8
13  19  8
17  21  8
17  22  8
18  24  8
19  25  8
20  21  8
20  23  8
22  26  8
23  26  8
24  27  8
25  27  8
4  10  8
4  12  8
5  10  8
5  15  8
7  15  8
7  16  8

$$$$
