135741685
  -OEChem-03202504012D

 20 21  0     0  0  0  0  0  0999 V2000
    6.9473   -0.9947    0.0000 S   0  0  0  0  0  0  0  0  0  0  0  0
    5.1350    1.8100    0.0000 O   0  0  0  0  0  0  0  0  0  0  0  0
    2.5369    0.3100    0.0000 O   0  0  0  0  0  0  0  0  0  0  0  0
    3.4030    1.8100    0.0000 O   0  0  0  0  0  0  0  0  0  0  0  0
    5.1350   -1.1900    0.0000 N   0  0  0  0  0  0  0  0  0  0  0  0
    7.5309   -0.1900    0.0000 N   0  0  0  0  0  0  0  0  0  0  0  0
    6.0010    0.3100    0.0000 C   0  0  0  0  0  0  0  0  0  0  0  0
    6.0010   -0.6900    0.0000 C   0  0  0  0  0  0  0  0  0  0  0  0
    6.9473    0.6147    0.0000 C   0  0  0  0  0  0  0  0  0  0  0  0
    5.1350    0.8100    0.0000 C   0  0  0  0  0  0  0  0  0  0  0  0
    4.2690    0.3100    0.0000 C   0  0  0  0  0  0  0  0  0  0  0  0
    4.2690   -0.6900    0.0000 C   0  0  0  0  0  0  0  0  0  0  0  0
    7.2579    1.5652    0.0000 C   0  0  0  0  0  0  0  0  0  0  0  0
    3.4030    0.8100    0.0000 C   0  0  0  0  0  0  0  0  0  0  0  0
    5.1350   -1.8100    0.0000 H   0  0  0  0  0  0  0  0  0  0  0  0
    3.7320   -1.0000    0.0000 H   0  0  0  0  0  0  0  0  0  0  0  0
    7.8472    1.3726    0.0000 H   0  0  0  0  0  0  0  0  0  0  0  0
    7.4505    2.1546    0.0000 H   0  0  0  0  0  0  0  0  0  0  0  0
    6.6686    1.7579    0.0000 H   0  0  0  0  0  0  0  0  0  0  0  0
    2.0000    0.6200    0.0000 H   0  0  0  0  0  0  0  0  0  0  0  0
  1  6  1  0  0  0  0
  1  8  1  0  0  0  0
  2 10  2  0  0  0  0
  3 14  1  0  0  0  0
  3 20  1  0  0  0  0
  4 14  2  0  0  0  0
  5  8  1  0  0  0  0
  5 12  1  0  0  0  0
  5 15  1  0  0  0  0
  6  9  2  0  0  0  0
  7  8  2  0  0  0  0
  7  9  1  0  0  0  0
  7 10  1  0  0  0  0
  9 13  1  0  0  0  0
 10 11  1  0  0  0  0
 11 12  2  0  0  0  0
 11 14  1  0  0  0  0
 12 16  1  0  0  0  0
 13 17  1  0  0  0  0
 13 18  1  0  0  0  0
 13 19  1  0  0  0  0
M  END
> <PUBCHEM_COMPOUND_CID>
135741685

> <PUBCHEM_COMPOUND_CANONICALIZED>
1

> <PUBCHEM_CACTVS_COMPLEXITY>
329

> <PUBCHEM_CACTVS_HBOND_ACCEPTOR>
6

> <PUBCHEM_CACTVS_HBOND_DONOR>
2

> <PUBCHEM_CACTVS_ROTATABLE_BOND>
1

> <PUBCHEM_CACTVS_SUBSKEYS>
AAADcYBzMABAAAAAAAAAAAAAAAAAAWAAAAAgAAAAAAAAAEABgAAAHgQQSAAADAzB3gQCiZLAAgCsA4T2SACBABAlAAkAGLE4RFgAJB5I0MCERYxkoABIWcOYWQMeAAAAAAAAAAAAAAAAAAAAAAAAAAAAAA==

> <PUBCHEM_IUPAC_OPENEYE_NAME>
3-methyl-4-oxo-7H-isothiazolo[5,4-b]pyridine-5-carboxylic acid

> <PUBCHEM_IUPAC_CAS_NAME>
3-methyl-4-oxo-7H-isothiazolo[5,4-b]pyridine-5-carboxylic acid

> <PUBCHEM_IUPAC_NAME_MARKUP>
3-methyl-4-oxo-7<I>H</I>-[1,2]thiazolo[5,4-b]pyridine-5-carboxylic acid

> <PUBCHEM_IUPAC_NAME>
3-methyl-4-oxo-7H-[1,2]thiazolo[5,4-b]pyridine-5-carboxylic acid

> <PUBCHEM_IUPAC_SYSTEMATIC_NAME>
3-methyl-4-oxidanylidene-7H-[1,2]thiazolo[5,4-b]pyridine-5-carboxylic acid

> <PUBCHEM_IUPAC_TRADITIONAL_NAME>
4-keto-3-methyl-7H-isothiazolo[5,4-b]pyridine-5-carboxylic acid

> <PUBCHEM_IUPAC_INCHI>
InChI=1S/C8H6N2O3S/c1-3-5-6(11)4(8(12)13)2-9-7(5)14-10-3/h2H,1H3,(H,9,11)(H,12,13)

> <PUBCHEM_IUPAC_INCHIKEY>
OVAOLAMUWIEEIO-UHFFFAOYSA-N

> <PUBCHEM_XLOGP3_AA>
1.6

> <PUBCHEM_EXACT_MASS>
210.00991323

> <PUBCHEM_MOLECULAR_FORMULA>
C8H6N2O3S

> <PUBCHEM_MOLECULAR_WEIGHT>
210.21

> <PUBCHEM_SMILES>
CC1=NSC2=C1C(=O)C(=CN2)C(=O)O

> <PUBCHEM_OPENEYE_CAN_SMILES>
CC1=NSC2=C1C(=O)C(=CN2)C(=O)O

> <PUBCHEM_OPENEYE_ISO_SMILES>
CC1=NSC2=C1C(=O)C(=CN2)C(=O)O

> <PUBCHEM_CACTVS_TPSA>
108

> <PUBCHEM_MONOISOTOPIC_WEIGHT>
210.00991323

> <PUBCHEM_TOTAL_CHARGE>
0

> <PUBCHEM_HEAVY_ATOM_COUNT>
14

> <PUBCHEM_ATOM_DEF_STEREO_COUNT>
0

> <PUBCHEM_ATOM_UDEF_STEREO_COUNT>
0

> <PUBCHEM_BOND_DEF_STEREO_COUNT>
0

> <PUBCHEM_BOND_UDEF_STEREO_COUNT>
0

> <PUBCHEM_ISOTOPIC_ATOM_COUNT>
0

> <PUBCHEM_COMPONENT_COUNT>
1

> <PUBCHEM_CACTVS_TAUTO_COUNT>
-1

> <PUBCHEM_COORDINATE_TYPE>
1
5
255

> <PUBCHEM_BONDANNOTATIONS>
1  6  8
1  8  8
10  11  8
11  12  8
5  12  8
5  8  8
6  9  8
7  10  8
7  8  8
7  9  8

$$$$
