112928
  -OEChem-03202503412D

 28 29  0     0  0  0  0  0  0999 V2000
    2.8660   -1.9050    0.0000 N   0  0  0  0  0  0  0  0  0  0  0  0
    2.8660    2.0950    0.0000 N   0  0  0  0  0  0  0  0  0  0  0  0
    3.7320   -0.4050    0.0000 C   0  0  0  0  0  0  0  0  0  0  0  0
    2.8660   -0.9050    0.0000 C   0  0  0  0  0  0  0  0  0  0  0  0
    3.7320    0.5950    0.0000 C   0  0  0  0  0  0  0  0  0  0  0  0
    2.8660    1.0950    0.0000 C   0  0  0  0  0  0  0  0  0  0  0  0
    2.0000   -0.4050    0.0000 C   0  0  0  0  0  0  0  0  0  0  0  0
    4.6260   -0.9397    0.0000 C   0  0  0  0  0  0  0  0  0  0  0  0
    2.0000    0.5950    0.0000 C   0  0  0  0  0  0  0  0  0  0  0  0
    4.6260    1.1297    0.0000 C   0  0  0  0  0  0  0  0  0  0  0  0
    5.5321   -0.4258    0.0000 C   0  0  0  0  0  0  0  0  0  0  0  0
    2.0000   -2.4050    0.0000 C   0  0  0  0  0  0  0  0  0  0  0  0
    3.7320   -2.4050    0.0000 C   0  0  0  0  0  0  0  0  0  0  0  0
    5.5321    0.6158    0.0000 C   0  0  0  0  0  0  0  0  0  0  0  0
    1.4631   -0.7150    0.0000 H   0  0  0  0  0  0  0  0  0  0  0  0
    4.6188   -1.5596    0.0000 H   0  0  0  0  0  0  0  0  0  0  0  0
    1.4631    0.9050    0.0000 H   0  0  0  0  0  0  0  0  0  0  0  0
    4.6188    1.7496    0.0000 H   0  0  0  0  0  0  0  0  0  0  0  0
    6.0678   -0.7379    0.0000 H   0  0  0  0  0  0  0  0  0  0  0  0
    1.6900   -1.8681    0.0000 H   0  0  0  0  0  0  0  0  0  0  0  0
    1.4631   -2.7150    0.0000 H   0  0  0  0  0  0  0  0  0  0  0  0
    2.3100   -2.9419    0.0000 H   0  0  0  0  0  0  0  0  0  0  0  0
    3.4220   -2.9419    0.0000 H   0  0  0  0  0  0  0  0  0  0  0  0
    4.2690   -2.7150    0.0000 H   0  0  0  0  0  0  0  0  0  0  0  0
    4.0420   -1.8681    0.0000 H   0  0  0  0  0  0  0  0  0  0  0  0
    6.0678    0.9279    0.0000 H   0  0  0  0  0  0  0  0  0  0  0  0
    2.3291    2.4050    0.0000 H   0  0  0  0  0  0  0  0  0  0  0  0
    3.4030    2.4050    0.0000 H   0  0  0  0  0  0  0  0  0  0  0  0
  1  4  1  0  0  0  0
  1 12  1  0  0  0  0
  1 13  1  0  0  0  0
  2  6  1  0  0  0  0
  2 27  1  0  0  0  0
  2 28  1  0  0  0  0
  3  4  1  0  0  0  0
  3  5  1  0  0  0  0
  3  8  2  0  0  0  0
  4  7  2  0  0  0  0
  5  6  1  0  0  0  0
  5 10  2  0  0  0  0
  6  9  2  0  0  0  0
  7  9  1  0  0  0  0
  7 15  1  0  0  0  0
  8 11  1  0  0  0  0
  8 16  1  0  0  0  0
  9 17  1  0  0  0  0
 10 14  1  0  0  0  0
 10 18  1  0  0  0  0
 11 14  2  0  0  0  0
 11 19  1  0  0  0  0
 12 20  1  0  0  0  0
 12 21  1  0  0  0  0
 12 22  1  0  0  0  0
 13 23  1  0  0  0  0
 13 24  1  0  0  0  0
 13 25  1  0  0  0  0
 14 26  1  0  0  0  0
M  END
> <PUBCHEM_COMPOUND_CID>
112928

> <PUBCHEM_COMPOUND_CANONICALIZED>
1

> <PUBCHEM_CACTVS_COMPLEXITY>
191

> <PUBCHEM_CACTVS_HBOND_ACCEPTOR>
2

> <PUBCHEM_CACTVS_HBOND_DONOR>
1

> <PUBCHEM_CACTVS_ROTATABLE_BOND>
1

> <PUBCHEM_CACTVS_SUBSKEYS>
AAADccBzAAAAAAAAAAAAAAAAAAAAAAAAAAAwYAAAAAAAAADBUAAAHAAQAAAADAiBGAQywMNAAACAAiRCQACCAAAhAgAIiAAIZIgIICLAkZGEIAhgkABIyAcQgIAOgACAQAASAAAAAQCAACQAAAAAAAAAAA==

> <PUBCHEM_IUPAC_OPENEYE_NAME>
N4,N4-dimethylnaphthalene-1,4-diamine

> <PUBCHEM_IUPAC_CAS_NAME>
N4,N4-dimethylnaphthalene-1,4-diamine

> <PUBCHEM_IUPAC_NAME_MARKUP>
4-<I>N</I>,4-<I>N</I>-dimethylnaphthalene-1,4-diamine

> <PUBCHEM_IUPAC_NAME>
4-N,4-N-dimethylnaphthalene-1,4-diamine

> <PUBCHEM_IUPAC_SYSTEMATIC_NAME>
N4,N4-dimethylnaphthalene-1,4-diamine

> <PUBCHEM_IUPAC_TRADITIONAL_NAME>
(4-amino-1-naphthyl)-dimethyl-amine

> <PUBCHEM_IUPAC_INCHI>
InChI=1S/C12H14N2/c1-14(2)12-8-7-11(13)9-5-3-4-6-10(9)12/h3-8H,13H2,1-2H3

> <PUBCHEM_IUPAC_INCHIKEY>
HLHYXKMOBCRCRR-UHFFFAOYSA-N

> <PUBCHEM_XLOGP3>
2.8

> <PUBCHEM_EXACT_MASS>
186.115698455

> <PUBCHEM_MOLECULAR_FORMULA>
C12H14N2

> <PUBCHEM_MOLECULAR_WEIGHT>
186.25

> <PUBCHEM_SMILES>
CN(C)C1=CC=C(C2=CC=CC=C21)N

> <PUBCHEM_OPENEYE_CAN_SMILES>
CN(C)C1=CC=C(C2=CC=CC=C21)N

> <PUBCHEM_OPENEYE_ISO_SMILES>
CN(C)C1=CC=C(C2=CC=CC=C21)N

> <PUBCHEM_CACTVS_TPSA>
29.3

> <PUBCHEM_MONOISOTOPIC_WEIGHT>
186.115698455

> <PUBCHEM_TOTAL_CHARGE>
0

> <PUBCHEM_HEAVY_ATOM_COUNT>
14

> <PUBCHEM_ATOM_DEF_STEREO_COUNT>
0

> <PUBCHEM_ATOM_UDEF_STEREO_COUNT>
0

> <PUBCHEM_BOND_DEF_STEREO_COUNT>
0

> <PUBCHEM_BOND_UDEF_STEREO_COUNT>
0

> <PUBCHEM_ISOTOPIC_ATOM_COUNT>
0

> <PUBCHEM_COMPONENT_COUNT>
1

> <PUBCHEM_CACTVS_TAUTO_COUNT>
-1

> <PUBCHEM_COORDINATE_TYPE>
1
5
255

> <PUBCHEM_BONDANNOTATIONS>
10  14  8
11  14  8
3  4  8
3  5  8
3  8  8
4  7  8
5  10  8
5  6  8
6  9  8
7  9  8
8  11  8

$$$$
