11454205
  -OEChem-03202504522D

 72 74  0     1  0  0  0  0  0999 V2000
    6.3301   -2.7958    0.0000 O   0  0  0  0  0  0  0  0  0  0  0  0
    6.3301   -4.7958    0.0000 O   0  0  0  0  0  0  0  0  0  0  0  0
    5.4641    2.7042    0.0000 N   0  0  3  0  0  0  0  0  0  0  0  0
    5.9641    4.8948    0.0000 N   0  0  3  0  0  0  0  0  0  0  0  0
    7.1962   -0.2958    0.0000 N   0  0  3  0  0  0  0  0  0  0  0  0
    6.3301    1.2042    0.0000 N   0  0  0  0  0  0  0  0  0  0  0  0
    4.5981    1.2042    0.0000 N   0  0  0  0  0  0  0  0  0  0  0  0
    5.4641   -0.2958    0.0000 N   0  0  0  0  0  0  0  0  0  0  0  0
    3.7320   -0.2958    0.0000 N   0  0  0  0  0  0  0  0  0  0  0  0
    5.4641   -4.2958    0.0000 N   0  0  0  0  0  0  0  0  0  0  0  0
    8.9282   -0.2958    0.0000 C   0  0  0  0  0  0  0  0  0  0  0  0
    4.3406    4.1130    0.0000 C   0  0  0  0  0  0  0  0  0  0  0  0
    4.5631    3.1381    0.0000 C   0  0  0  0  0  0  0  0  0  0  0  0
    6.3651    3.1381    0.0000 C   0  0  0  0  0  0  0  0  0  0  0  0
    4.9641    4.8948    0.0000 C   0  0  0  0  0  0  0  0  0  0  0  0
    6.5876    4.1130    0.0000 C   0  0  0  0  0  0  0  0  0  0  0  0
    8.0622    0.2042    0.0000 C   0  0  0  0  0  0  0  0  0  0  0  0
    9.7942   -0.7958    0.0000 C   0  0  0  0  0  0  0  0  0  0  0  0
    9.4282    0.5702    0.0000 C   0  0  0  0  0  0  0  0  0  0  0  0
    8.4282   -1.1618    0.0000 C   0  0  0  0  0  0  0  0  0  0  0  0
    5.4641    1.7042    0.0000 C   0  0  0  0  0  0  0  0  0  0  0  0
    6.3980    5.7958    0.0000 C   0  0  0  0  0  0  0  0  0  0  0  0
    6.3301    0.2042    0.0000 C   0  0  0  0  0  0  0  0  0  0  0  0
    7.1962   -1.2958    0.0000 C   0  0  0  0  0  0  0  0  0  0  0  0
    4.5981    0.2042    0.0000 C   0  0  0  0  0  0  0  0  0  0  0  0
    3.7320   -1.2958    0.0000 C   0  0  0  0  0  0  0  0  0  0  0  0
    2.8660   -1.7958    0.0000 C   0  0  0  0  0  0  0  0  0  0  0  0
    4.5981   -1.7958    0.0000 C   0  0  0  0  0  0  0  0  0  0  0  0
    4.5981   -2.7958    0.0000 C   0  0  0  0  0  0  0  0  0  0  0  0
    2.8660   -2.7958    0.0000 C   0  0  0  0  0  0  0  0  0  0  0  0
    2.0000   -1.2958    0.0000 C   0  0  0  0  0  0  0  0  0  0  0  0
    3.7320   -3.2958    0.0000 C   0  0  0  0  0  0  0  0  0  0  0  0
    5.4641   -3.2958    0.0000 C   0  0  0  0  0  0  0  0  0  0  0  0
    6.3301   -5.7958    0.0000 C   0  0  0  0  0  0  0  0  0  0  0  0
    3.9540    4.5977    0.0000 H   0  0  0  0  0  0  0  0  0  0  0  0
    3.7820    3.8440    0.0000 H   0  0  0  0  0  0  0  0  0  0  0  0
    3.9431    3.1381    0.0000 H   0  0  0  0  0  0  0  0  0  0  0  0
    4.4252    2.5336    0.0000 H   0  0  0  0  0  0  0  0  0  0  0  0
    6.5030    2.5336    0.0000 H   0  0  0  0  0  0  0  0  0  0  0  0
    6.9851    3.1381    0.0000 H   0  0  0  0  0  0  0  0  0  0  0  0
    5.1021    5.4993    0.0000 H   0  0  0  0  0  0  0  0  0  0  0  0
    4.4055    5.1638    0.0000 H   0  0  0  0  0  0  0  0  0  0  0  0
    7.1462    3.8440    0.0000 H   0  0  0  0  0  0  0  0  0  0  0  0
    6.9742    4.5977    0.0000 H   0  0  0  0  0  0  0  0  0  0  0  0
    8.4607    0.6791    0.0000 H   0  0  0  0  0  0  0  0  0  0  0  0
    7.6636    0.6791    0.0000 H   0  0  0  0  0  0  0  0  0  0  0  0
    9.4842   -1.3327    0.0000 H   0  0  0  0  0  0  0  0  0  0  0  0
   10.3312   -1.1058    0.0000 H   0  0  0  0  0  0  0  0  0  0  0  0
   10.1042   -0.2589    0.0000 H   0  0  0  0  0  0  0  0  0  0  0  0
    9.9651    0.2602    0.0000 H   0  0  0  0  0  0  0  0  0  0  0  0
    9.7382    1.1072    0.0000 H   0  0  0  0  0  0  0  0  0  0  0  0
    8.8913    0.8802    0.0000 H   0  0  0  0  0  0  0  0  0  0  0  0
    7.8913   -0.8518    0.0000 H   0  0  0  0  0  0  0  0  0  0  0  0
    8.1182   -1.6988    0.0000 H   0  0  0  0  0  0  0  0  0  0  0  0
    8.9651   -1.4718    0.0000 H   0  0  0  0  0  0  0  0  0  0  0  0
    6.9566    5.5268    0.0000 H   0  0  0  0  0  0  0  0  0  0  0  0
    6.6670    6.3544    0.0000 H   0  0  0  0  0  0  0  0  0  0  0  0
    5.8394    6.0648    0.0000 H   0  0  0  0  0  0  0  0  0  0  0  0
    6.5762   -1.2958    0.0000 H   0  0  0  0  0  0  0  0  0  0  0  0
    7.1962   -1.9158    0.0000 H   0  0  0  0  0  0  0  0  0  0  0  0
    7.8162   -1.2958    0.0000 H   0  0  0  0  0  0  0  0  0  0  0  0
    3.1951    0.0142    0.0000 H   0  0  0  0  0  0  0  0  0  0  0  0
    5.1350   -1.4858    0.0000 H   0  0  0  0  0  0  0  0  0  0  0  0
    2.3291   -3.1058    0.0000 H   0  0  0  0  0  0  0  0  0  0  0  0
    2.3100   -0.7589    0.0000 H   0  0  0  0  0  0  0  0  0  0  0  0
    1.4631   -0.9858    0.0000 H   0  0  0  0  0  0  0  0  0  0  0  0
    1.6900   -1.8327    0.0000 H   0  0  0  0  0  0  0  0  0  0  0  0
    3.7320   -3.9158    0.0000 H   0  0  0  0  0  0  0  0  0  0  0  0
    4.9272   -4.6058    0.0000 H   0  0  0  0  0  0  0  0  0  0  0  0
    5.7101   -5.7958    0.0000 H   0  0  0  0  0  0  0  0  0  0  0  0
    6.3301   -6.4158    0.0000 H   0  0  0  0  0  0  0  0  0  0  0  0
    6.9501   -5.7958    0.0000 H   0  0  0  0  0  0  0  0  0  0  0  0
  1 33  2  0  0  0  0
  2 10  1  0  0  0  0
  2 34  1  0  0  0  0
  3 13  1  0  0  0  0
  3 14  1  0  0  0  0
  3 21  1  0  0  0  0
  4 15  1  0  0  0  0
  4 16  1  0  0  0  0
  4 22  1  0  0  0  0
  5 17  1  0  0  0  0
  5 23  1  0  0  0  0
  5 24  1  0  0  0  0
  6 21  2  0  0  0  0
  6 23  1  0  0  0  0
  7 21  1  0  0  0  0
  7 25  2  0  0  0  0
  8 23  2  0  0  0  0
  8 25  1  0  0  0  0
  9 25  1  0  0  0  0
  9 26  1  0  0  0  0
  9 62  1  0  0  0  0
 10 33  1  0  0  0  0
 10 69  1  0  0  0  0
 11 17  1  0  0  0  0
 11 18  1  0  0  0  0
 11 19  1  0  0  0  0
 11 20  1  0  0  0  0
 12 13  1  0  0  0  0
 12 15  1  0  0  0  0
 12 35  1  0  0  0  0
 12 36  1  0  0  0  0
 13 37  1  0  0  0  0
 13 38  1  0  0  0  0
 14 16  1  0  0  0  0
 14 39  1  0  0  0  0
 14 40  1  0  0  0  0
 15 41  1  0  0  0  0
 15 42  1  0  0  0  0
 16 43  1  0  0  0  0
 16 44  1  0  0  0  0
 17 45  1  0  0  0  0
 17 46  1  0  0  0  0
 18 47  1  0  0  0  0
 18 48  1  0  0  0  0
 18 49  1  0  0  0  0
 19 50  1  0  0  0  0
 19 51  1  0  0  0  0
 19 52  1  0  0  0  0
 20 53  1  0  0  0  0
 20 54  1  0  0  0  0
 20 55  1  0  0  0  0
 22 56  1  0  0  0  0
 22 57  1  0  0  0  0
 22 58  1  0  0  0  0
 24 59  1  0  0  0  0
 24 60  1  0  0  0  0
 24 61  1  0  0  0  0
 26 27  2  0  0  0  0
 26 28  1  0  0  0  0
 27 30  1  0  0  0  0
 27 31  1  0  0  0  0
 28 29  2  0  0  0  0
 28 63  1  0  0  0  0
 29 32  1  0  0  0  0
 29 33  1  0  0  0  0
 30 32  2  0  0  0  0
 30 64  1  0  0  0  0
 31 65  1  0  0  0  0
 31 66  1  0  0  0  0
 31 67  1  0  0  0  0
 32 68  1  0  0  0  0
 34 70  1  0  0  0  0
 34 71  1  0  0  0  0
 34 72  1  0  0  0  0
M  END
> <PUBCHEM_COMPOUND_CID>
11454205

> <PUBCHEM_COMPOUND_CANONICALIZED>
1

> <PUBCHEM_CACTVS_COMPLEXITY>
645

> <PUBCHEM_CACTVS_HBOND_ACCEPTOR>
9

> <PUBCHEM_CACTVS_HBOND_DONOR>
2

> <PUBCHEM_CACTVS_ROTATABLE_BOND>
8

> <PUBCHEM_CACTVS_SUBSKEYS>
AAADcfB78AAAAAAAAAAAAAAAAAAAAAAAAAA8QAAABYAAAAABwAAAHgAUAAAADgjBmAYz0IfYEACoAiVSdACCAAklAoApiAEIZMiIaDLA3ZGUIQhokALIyacciACOQAAAQAACAACAAACAAAQAAAAAAAAAAA==

> <PUBCHEM_IUPAC_OPENEYE_NAME>
3-[[4-[2,2-dimethylpropyl(methyl)amino]-6-(4-methyl-1,4-diazepan-1-yl)-1,3,5-triazin-2-yl]amino]-N-methoxy-4-methyl-benzamide

> <PUBCHEM_IUPAC_CAS_NAME>
3-[[4-[2,2-dimethylpropyl(methyl)amino]-6-(4-methyl-1,4-diazepan-1-yl)-1,3,5-triazin-2-yl]amino]-N-methoxy-4-methylbenzamide

> <PUBCHEM_IUPAC_NAME_MARKUP>
3-[[4-[2,2-dimethylpropyl(methyl)amino]-6-(4-methyl-1,4-diazepan-1-yl)-1,3,5-triazin-2-yl]amino]-<I>N</I>-methoxy-4-methylbenzamide

> <PUBCHEM_IUPAC_NAME>
3-[[4-[2,2-dimethylpropyl(methyl)amino]-6-(4-methyl-1,4-diazepan-1-yl)-1,3,5-triazin-2-yl]amino]-N-methoxy-4-methylbenzamide

> <PUBCHEM_IUPAC_SYSTEMATIC_NAME>
3-[[4-[2,2-dimethylpropyl(methyl)amino]-6-(4-methyl-1,4-diazepan-1-yl)-1,3,5-triazin-2-yl]amino]-N-methoxy-4-methyl-benzamide

> <PUBCHEM_IUPAC_TRADITIONAL_NAME>
N-methoxy-4-methyl-3-[[4-(4-methyl-1,4-diazepan-1-yl)-6-[methyl(neopentyl)amino]-s-triazin-2-yl]amino]benzamide

> <PUBCHEM_IUPAC_INCHI>
InChI=1S/C24H38N8O2/c1-17-9-10-18(20(33)29-34-7)15-19(17)25-21-26-22(31(6)16-24(2,3)4)28-23(27-21)32-12-8-11-30(5)13-14-32/h9-10,15H,8,11-14,16H2,1-7H3,(H,29,33)(H,25,26,27,28)

> <PUBCHEM_IUPAC_INCHIKEY>
CFXVMISMBBBSCO-UHFFFAOYSA-N

> <PUBCHEM_XLOGP3_AA>
4.3

> <PUBCHEM_EXACT_MASS>
470.31177248

> <PUBCHEM_MOLECULAR_FORMULA>
C24H38N8O2

> <PUBCHEM_MOLECULAR_WEIGHT>
470.6

> <PUBCHEM_SMILES>
CC1=C(C=C(C=C1)C(=O)NOC)NC2=NC(=NC(=N2)N(C)CC(C)(C)C)N3CCCN(CC3)C

> <PUBCHEM_OPENEYE_CAN_SMILES>
CC1=C(C=C(C=C1)C(=O)NOC)NC2=NC(=NC(=N2)N(C)CC(C)(C)C)N3CCCN(CC3)C

> <PUBCHEM_OPENEYE_ISO_SMILES>
CC1=C(C=C(C=C1)C(=O)NOC)NC2=NC(=NC(=N2)N(C)CC(C)(C)C)N3CCCN(CC3)C

> <PUBCHEM_CACTVS_TPSA>
98.8

> <PUBCHEM_MONOISOTOPIC_WEIGHT>
470.31177248

> <PUBCHEM_TOTAL_CHARGE>
0

> <PUBCHEM_HEAVY_ATOM_COUNT>
34

> <PUBCHEM_ATOM_DEF_STEREO_COUNT>
0

> <PUBCHEM_ATOM_UDEF_STEREO_COUNT>
0

> <PUBCHEM_BOND_DEF_STEREO_COUNT>
0

> <PUBCHEM_BOND_UDEF_STEREO_COUNT>
0

> <PUBCHEM_ISOTOPIC_ATOM_COUNT>
0

> <PUBCHEM_COMPONENT_COUNT>
1

> <PUBCHEM_CACTVS_TAUTO_COUNT>
-1

> <PUBCHEM_COORDINATE_TYPE>
1
5
255

> <PUBCHEM_BONDANNOTATIONS>
26  27  8
26  28  8
27  30  8
28  29  8
29  32  8
30  32  8
6  21  8
6  23  8
7  21  8
7  25  8
8  23  8
8  25  8

$$$$
