9547698
  -OEChem-03202506522D

 69 71  0     1  0  0  0  0  0999 V2000
    2.8660   -0.3465    0.0000 O   0  0  0  0  0  0  0  0  0  0  0  0
    5.4641   -4.8465    0.0000 O   0  0  0  0  0  0  0  0  0  0  0  0
    5.4641    1.1535    0.0000 C   0  0  1  0  0  0  0  0  0  0  0  0
    5.4641    0.1535    0.0000 C   0  0  1  0  0  0  0  0  0  0  0  0
    6.4103    1.4582    0.0000 C   0  0  2  0  0  0  0  0  0  0  0  0
    6.4103   -0.1512    0.0000 C   0  0  0  0  0  0  0  0  0  0  0  0
    6.9939    0.6535    0.0000 C   0  0  0  0  0  0  0  0  0  0  0  0
    4.5981   -0.3465    0.0000 C   0  0  1  0  0  0  0  0  0  0  0  0
    4.5981    1.6535    0.0000 C   0  0  0  0  0  0  0  0  0  0  0  0
    6.7210    2.4087    0.0000 C   0  0  2  0  0  0  0  0  0  0  0  0
    5.4641    2.1535    0.0000 C   0  0  0  0  0  0  0  0  0  0  0  0
    3.7320    1.1535    0.0000 C   0  0  0  0  0  0  0  0  0  0  0  0
    3.7320    0.1535    0.0000 C   0  0  0  0  0  0  0  0  0  0  0  0
    4.5981   -1.3465    0.0000 C   0  0  0  0  0  0  0  0  0  0  0  0
    6.0531    3.1530    0.0000 C   0  0  0  0  0  0  0  0  0  0  0  0
    7.6995    2.6150    0.0000 C   0  0  0  0  0  0  0  0  0  0  0  0
    3.7320   -1.8465    0.0000 C   0  0  0  0  0  0  0  0  0  0  0  0
    8.0102    3.5655    0.0000 C   0  0  0  0  0  0  0  0  0  0  0  0
    3.7320   -2.8465    0.0000 C   0  0  0  0  0  0  0  0  0  0  0  0
    8.9887    3.7717    0.0000 C   0  0  0  0  0  0  0  0  0  0  0  0
    2.8660   -3.3465    0.0000 C   0  0  0  0  0  0  0  0  0  0  0  0
    4.5981   -3.3465    0.0000 C   0  0  0  0  0  0  0  0  0  0  0  0
    9.2993    4.7222    0.0000 C   0  0  0  0  0  0  0  0  0  0  0  0
    2.8660   -4.3465    0.0000 C   0  0  0  0  0  0  0  0  0  0  0  0
    4.5981   -4.3465    0.0000 C   0  0  0  0  0  0  0  0  0  0  0  0
    2.0000   -2.8465    0.0000 C   0  0  0  0  0  0  0  0  0  0  0  0
   10.2778    4.9284    0.0000 C   0  0  0  0  0  0  0  0  0  0  0  0
    8.6315    5.4665    0.0000 C   0  0  0  0  0  0  0  0  0  0  0  0
    3.7320   -4.8465    0.0000 C   0  0  0  0  0  0  0  0  0  0  0  0
    5.5540   -0.6917    0.0000 H   0  0  0  0  0  0  0  0  0  0  0  0
    7.2500    1.5901    0.0000 H   0  0  0  0  0  0  0  0  0  0  0  0
    6.1593   -0.7182    0.0000 H   0  0  0  0  0  0  0  0  0  0  0  0
    6.9477   -0.4605    0.0000 H   0  0  0  0  0  0  0  0  0  0  0  0
    7.4548    0.2388    0.0000 H   0  0  0  0  0  0  0  0  0  0  0  0
    7.4548    1.0682    0.0000 H   0  0  0  0  0  0  0  0  0  0  0  0
    5.1350   -0.6565    0.0000 H   0  0  0  0  0  0  0  0  0  0  0  0
    4.9966    2.1284    0.0000 H   0  0  0  0  0  0  0  0  0  0  0  0
    4.1996    2.1284    0.0000 H   0  0  0  0  0  0  0  0  0  0  0  0
    6.1143    2.2809    0.0000 H   0  0  0  0  0  0  0  0  0  0  0  0
    6.0841    2.1535    0.0000 H   0  0  0  0  0  0  0  0  0  0  0  0
    5.4641    2.7735    0.0000 H   0  0  0  0  0  0  0  0  0  0  0  0
    4.8441    2.1535    0.0000 H   0  0  0  0  0  0  0  0  0  0  0  0
    3.5200    1.7361    0.0000 H   0  0  0  0  0  0  0  0  0  0  0  0
    3.1215    1.0458    0.0000 H   0  0  0  0  0  0  0  0  0  0  0  0
    4.8101   -1.9291    0.0000 H   0  0  0  0  0  0  0  0  0  0  0  0
    5.2087   -1.2388    0.0000 H   0  0  0  0  0  0  0  0  0  0  0  0
    6.5146    3.5671    0.0000 H   0  0  0  0  0  0  0  0  0  0  0  0
    5.6391    3.6145    0.0000 H   0  0  0  0  0  0  0  0  0  0  0  0
    5.5917    2.7390    0.0000 H   0  0  0  0  0  0  0  0  0  0  0  0
    8.1136    2.1535    0.0000 H   0  0  0  0  0  0  0  0  0  0  0  0
    3.5200   -1.2639    0.0000 H   0  0  0  0  0  0  0  0  0  0  0  0
    3.1215   -1.9542    0.0000 H   0  0  0  0  0  0  0  0  0  0  0  0
    7.5961    4.0269    0.0000 H   0  0  0  0  0  0  0  0  0  0  0  0
    9.0092    3.1520    0.0000 H   0  0  0  0  0  0  0  0  0  0  0  0
    9.6025    3.6843    0.0000 H   0  0  0  0  0  0  0  0  0  0  0  0
    5.1350   -3.0365    0.0000 H   0  0  0  0  0  0  0  0  0  0  0  0
    9.4919    5.3115    0.0000 H   0  0  0  0  0  0  0  0  0  0  0  0
    2.3291   -4.6565    0.0000 H   0  0  0  0  0  0  0  0  0  0  0  0
    2.3100   -2.3096    0.0000 H   0  0  0  0  0  0  0  0  0  0  0  0
    1.4631   -2.5365    0.0000 H   0  0  0  0  0  0  0  0  0  0  0  0
    1.6900   -3.3834    0.0000 H   0  0  0  0  0  0  0  0  0  0  0  0
   10.4057    4.3218    0.0000 H   0  0  0  0  0  0  0  0  0  0  0  0
   10.8845    5.0563    0.0000 H   0  0  0  0  0  0  0  0  0  0  0  0
   10.1500    5.5351    0.0000 H   0  0  0  0  0  0  0  0  0  0  0  0
    9.0929    5.8806    0.0000 H   0  0  0  0  0  0  0  0  0  0  0  0
    8.2174    5.9280    0.0000 H   0  0  0  0  0  0  0  0  0  0  0  0
    8.1700    5.0524    0.0000 H   0  0  0  0  0  0  0  0  0  0  0  0
    3.7320   -5.4665    0.0000 H   0  0  0  0  0  0  0  0  0  0  0  0
    5.4641   -5.4665    0.0000 H   0  0  0  0  0  0  0  0  0  0  0  0
  1 13  2  0  0  0  0
  2 25  1  0  0  0  0
  2 69  1  0  0  0  0
  3  4  1  0  0  0  0
  3  5  1  0  0  0  0
  3  9  1  0  0  0  0
  3 11  1  1  0  0  0
  4  6  1  0  0  0  0
  4  8  1  0  0  0  0
  4 30  1  6  0  0  0
  5  7  1  0  0  0  0
  5 10  1  0  0  0  0
  5 31  1  6  0  0  0
  6  7  1  0  0  0  0
  6 32  1  0  0  0  0
  6 33  1  0  0  0  0
  7 34  1  0  0  0  0
  7 35  1  0  0  0  0
  8 13  1  0  0  0  0
  8 14  1  6  0  0  0
  8 36  1  0  0  0  0
  9 12  1  0  0  0  0
  9 37  1  0  0  0  0
  9 38  1  0  0  0  0
 10 15  1  6  0  0  0
 10 16  1  0  0  0  0
 10 39  1  0  0  0  0
 11 40  1  0  0  0  0
 11 41  1  0  0  0  0
 11 42  1  0  0  0  0
 12 13  1  0  0  0  0
 12 43  1  0  0  0  0
 12 44  1  0  0  0  0
 14 17  1  0  0  0  0
 14 45  1  0  0  0  0
 14 46  1  0  0  0  0
 15 47  1  0  0  0  0
 15 48  1  0  0  0  0
 15 49  1  0  0  0  0
 16 18  2  0  0  0  0
 16 50  1  0  0  0  0
 17 19  1  0  0  0  0
 17 51  1  0  0  0  0
 17 52  1  0  0  0  0
 18 20  1  0  0  0  0
 18 53  1  0  0  0  0
 19 21  2  0  0  0  0
 19 22  1  0  0  0  0
 20 23  1  0  0  0  0
 20 54  1  0  0  0  0
 20 55  1  0  0  0  0
 21 24  1  0  0  0  0
 21 26  1  0  0  0  0
 22 25  2  0  0  0  0
 22 56  1  0  0  0  0
 23 27  1  0  0  0  0
 23 28  1  0  0  0  0
 23 57  1  0  0  0  0
 24 29  2  0  0  0  0
 24 58  1  0  0  0  0
 25 29  1  0  0  0  0
 26 59  1  0  0  0  0
 26 60  1  0  0  0  0
 26 61  1  0  0  0  0
 27 62  1  0  0  0  0
 27 63  1  0  0  0  0
 27 64  1  0  0  0  0
 28 65  1  0  0  0  0
 28 66  1  0  0  0  0
 28 67  1  0  0  0  0
 29 68  1  0  0  0  0
M  END
> <PUBCHEM_COMPOUND_CID>
9547698

> <PUBCHEM_COMPOUND_CANONICALIZED>
1

> <PUBCHEM_CACTVS_COMPLEXITY>
579

> <PUBCHEM_CACTVS_HBOND_ACCEPTOR>
2

> <PUBCHEM_CACTVS_HBOND_DONOR>
1

> <PUBCHEM_CACTVS_ROTATABLE_BOND>
7

> <PUBCHEM_CACTVS_SUBSKEYS>
AAADcfB4MAAAAAAAAAAAAAAAAAAAAYAAAAAwYAAAAAAAAGABAAAAGgAACAAADwSAmAAyBoAAAgCIAqBSAAACAAAgIAAIiAEGCIgIJjKCERKAcAAkwBEImAeIyPCPoAABAAAQAABAAAYAACAAAQAACAAAAA==

> <PUBCHEM_IUPAC_OPENEYE_NAME>
(1R,3aS,4S,7aR)-1-[(E,1R)-1,5-dimethylhex-2-enyl]-4-[2-(5-hydroxy-2-methyl-phenyl)ethyl]-7a-methyl-2,3,3a,4,6,7-hexahydro-1H-inden-5-one

> <PUBCHEM_IUPAC_CAS_NAME>
(1R,3aS,4S,7aR)-4-[2-(5-hydroxy-2-methylphenyl)ethyl]-7a-methyl-1-[(E,2R)-6-methylhept-3-en-2-yl]-2,3,3a,4,6,7-hexahydro-1H-inden-5-one

> <PUBCHEM_IUPAC_NAME_MARKUP>
(1<I>R</I>,3<I>a</I><I>S</I>,4<I>S</I>,7<I>a</I><I>R</I>)-4-[2-(5-hydroxy-2-methylphenyl)ethyl]-7<I>a</I>-methyl-1-[(<I>E</I>,2<I>R</I>)-6-methylhept-3-en-2-yl]-2,3,3<I>a</I>,4,6,7-hexahydro-1<I>H</I>-inden-5-one

> <PUBCHEM_IUPAC_NAME>
(1R,3aS,4S,7aR)-4-[2-(5-hydroxy-2-methylphenyl)ethyl]-7a-methyl-1-[(E,2R)-6-methylhept-3-en-2-yl]-2,3,3a,4,6,7-hexahydro-1H-inden-5-one

> <PUBCHEM_IUPAC_SYSTEMATIC_NAME>
(1R,3aS,4S,7aR)-7a-methyl-1-[(E,2R)-6-methylhept-3-en-2-yl]-4-[2-(2-methyl-5-oxidanyl-phenyl)ethyl]-2,3,3a,4,6,7-hexahydro-1H-inden-5-one

> <PUBCHEM_IUPAC_TRADITIONAL_NAME>
(1R,3aS,4S,7aR)-1-[(E,1R)-1,5-dimethylhex-2-enyl]-4-[2-(5-hydroxy-2-methyl-phenyl)ethyl]-7a-methyl-2,3,3a,4,6,7-hexahydro-1H-inden-5-one

> <PUBCHEM_IUPAC_INCHI>
InChI=1S/C27H40O2/c1-18(2)7-6-8-20(4)24-13-14-25-23(26(29)15-16-27(24,25)5)12-10-21-17-22(28)11-9-19(21)3/h6,8-9,11,17-18,20,23-25,28H,7,10,12-16H2,1-5H3/b8-6+/t20-,23+,24-,25+,27-/m1/s1

> <PUBCHEM_IUPAC_INCHIKEY>
MDPPOIXSNMVHOD-FBPKMIEBSA-N

> <PUBCHEM_XLOGP3_AA>
7.3

> <PUBCHEM_EXACT_MASS>
396.302830514

> <PUBCHEM_MOLECULAR_FORMULA>
C27H40O2

> <PUBCHEM_MOLECULAR_WEIGHT>
396.6

> <PUBCHEM_SMILES>
CC1=C(C=C(C=C1)O)CC[C@H]2[C@@H]3CC[C@@H]([C@]3(CCC2=O)C)[C@H](C)/C=C/CC(C)C

> <PUBCHEM_OPENEYE_CAN_SMILES>
CC1=C(C=C(C=C1)O)CCC2C3CCC(C3(CCC2=O)C)C(C)C=CCC(C)C

> <PUBCHEM_OPENEYE_ISO_SMILES>
CC1=C(C=C(C=C1)O)CC[C@H]2[C@@H]3CC[C@@H]([C@]3(CCC2=O)C)[C@H](C)/C=C/CC(C)C

> <PUBCHEM_CACTVS_TPSA>
37.3

> <PUBCHEM_MONOISOTOPIC_WEIGHT>
396.302830514

> <PUBCHEM_TOTAL_CHARGE>
0

> <PUBCHEM_HEAVY_ATOM_COUNT>
29

> <PUBCHEM_ATOM_DEF_STEREO_COUNT>
5

> <PUBCHEM_ATOM_UDEF_STEREO_COUNT>
0

> <PUBCHEM_BOND_DEF_STEREO_COUNT>
1

> <PUBCHEM_BOND_UDEF_STEREO_COUNT>
0

> <PUBCHEM_ISOTOPIC_ATOM_COUNT>
0

> <PUBCHEM_COMPONENT_COUNT>
1

> <PUBCHEM_CACTVS_TAUTO_COUNT>
-1

> <PUBCHEM_COORDINATE_TYPE>
1
5
255

> <PUBCHEM_BONDANNOTATIONS>
10  15  6
19  21  8
19  22  8
21  24  8
22  25  8
24  29  8
25  29  8
3  11  5
4  30  6
5  31  6
8  14  6

$$$$
