46223254
  -OEChem-03202501292D

 60 64  0     0  0  0  0  0  0999 V2000
    4.6783   -1.6280    0.0000 S   0  0  0  0  0  0  0  0  0  0  0  0
   12.4133    6.9220    0.0000 F   0  0  0  0  0  0  0  0  0  0  0  0
   10.7669    7.4600    0.0000 F   0  0  0  0  0  0  0  0  0  0  0  0
    4.1349   -6.8936    0.0000 O   0  0  0  0  0  0  0  0  0  0  0  0
    7.5673    3.2455    0.0000 O   0  0  0  0  0  0  0  0  0  0  0  0
   11.1241    5.7652    0.0000 O   0  0  0  0  0  0  0  0  0  0  0  0
    3.3660   -4.3621    0.0000 N   0  0  0  0  0  0  0  0  0  0  0  0
    2.0000   -0.3232    0.0000 N   0  0  0  0  0  0  0  0  0  0  0  0
    2.3660   -4.3621    0.0000 N   0  0  0  0  0  0  0  0  0  0  0  0
    2.8660    1.1768    0.0000 N   0  0  0  0  0  0  0  0  0  0  0  0
    5.9209    3.7836    0.0000 N   0  0  0  0  0  0  0  0  0  0  0  0
    7.2101    4.9403    0.0000 N   0  0  0  0  0  0  0  0  0  0  0  0
    3.7320   -0.3232    0.0000 C   0  0  0  0  0  0  0  0  0  0  0  0
    3.7320   -1.3232    0.0000 C   0  0  0  0  0  0  0  0  0  0  0  0
    4.6783   -0.0185    0.0000 C   0  0  0  0  0  0  0  0  0  0  0  0
    2.8660   -1.8232    0.0000 C   0  0  0  0  0  0  0  0  0  0  0  0
    2.8660   -2.8232    0.0000 C   0  0  0  0  0  0  0  0  0  0  0  0
    4.9889    0.9320    0.0000 C   0  0  0  0  0  0  0  0  0  0  0  0
    2.8660    0.1768    0.0000 C   0  0  0  0  0  0  0  0  0  0  0  0
    5.2619   -0.8232    0.0000 C   0  0  0  0  0  0  0  0  0  0  0  0
    2.0000   -1.3232    0.0000 C   0  0  0  0  0  0  0  0  0  0  0  0
    3.6750   -3.4110    0.0000 C   0  0  0  0  0  0  0  0  0  0  0  0
    2.0570   -3.4110    0.0000 C   0  0  0  0  0  0  0  0  0  0  0  0
    4.3211    1.6763    0.0000 C   0  0  0  0  0  0  0  0  0  0  0  0
    5.9674    1.1383    0.0000 C   0  0  0  0  0  0  0  0  0  0  0  0
    3.9538   -5.1711    0.0000 C   0  0  0  0  0  0  0  0  0  0  0  0
    5.6103    2.8331    0.0000 C   0  0  0  0  0  0  0  0  0  0  0  0
    4.6318    2.6269    0.0000 C   0  0  0  0  0  0  0  0  0  0  0  0
    6.2781    2.0888    0.0000 C   0  0  0  0  0  0  0  0  0  0  0  0
    3.5471   -6.0846    0.0000 C   0  0  0  0  0  0  0  0  0  0  0  0
    6.8994    3.9898    0.0000 C   0  0  0  0  0  0  0  0  0  0  0  0
    8.1886    5.1466    0.0000 C   0  0  0  0  0  0  0  0  0  0  0  0
    8.4993    6.0971    0.0000 C   0  0  0  0  0  0  0  0  0  0  0  0
    8.8564    4.4023    0.0000 C   0  0  0  0  0  0  0  0  0  0  0  0
   10.1456    5.5590    0.0000 C   0  0  0  0  0  0  0  0  0  0  0  0
    9.4778    6.3033    0.0000 C   0  0  0  0  0  0  0  0  0  0  0  0
    9.8349    4.6085    0.0000 C   0  0  0  0  0  0  0  0  0  0  0  0
   11.4348    6.7157    0.0000 C   0  0  0  0  0  0  0  0  0  0  0  0
    5.8819   -0.8232    0.0000 H   0  0  0  0  0  0  0  0  0  0  0  0
    1.4631   -1.6332    0.0000 H   0  0  0  0  0  0  0  0  0  0  0  0
    4.2647   -3.2194    0.0000 H   0  0  0  0  0  0  0  0  0  0  0  0
    1.4674   -3.2194    0.0000 H   0  0  0  0  0  0  0  0  0  0  0  0
    3.7144    1.5485    0.0000 H   0  0  0  0  0  0  0  0  0  0  0  0
    6.3815    0.6768    0.0000 H   0  0  0  0  0  0  0  0  0  0  0  0
    4.4678   -5.5178    0.0000 H   0  0  0  0  0  0  0  0  0  0  0  0
    4.3845   -4.7251    0.0000 H   0  0  0  0  0  0  0  0  0  0  0  0
    4.2177    3.0883    0.0000 H   0  0  0  0  0  0  0  0  0  0  0  0
    6.8848    2.2166    0.0000 H   0  0  0  0  0  0  0  0  0  0  0  0
    2.3291    1.4868    0.0000 H   0  0  0  0  0  0  0  0  0  0  0  0
    3.4030    1.4868    0.0000 H   0  0  0  0  0  0  0  0  0  0  0  0
    3.0331   -5.7379    0.0000 H   0  0  0  0  0  0  0  0  0  0  0  0
    3.1164   -6.5306    0.0000 H   0  0  0  0  0  0  0  0  0  0  0  0
    5.5069    4.2451    0.0000 H   0  0  0  0  0  0  0  0  0  0  0  0
    6.7960    5.4018    0.0000 H   0  0  0  0  0  0  0  0  0  0  0  0
    3.8827   -7.4600    0.0000 H   0  0  0  0  0  0  0  0  0  0  0  0
    8.0852    6.5585    0.0000 H   0  0  0  0  0  0  0  0  0  0  0  0
    8.6638    3.8129    0.0000 H   0  0  0  0  0  0  0  0  0  0  0  0
    9.6704    6.8926    0.0000 H   0  0  0  0  0  0  0  0  0  0  0  0
   10.2490    4.1470    0.0000 H   0  0  0  0  0  0  0  0  0  0  0  0
   11.8488    6.2543    0.0000 H   0  0  0  0  0  0  0  0  0  0  0  0
  1 14  1  0  0  0  0
  1 20  1  0  0  0  0
  2 38  1  0  0  0  0
  3 38  1  0  0  0  0
  4 30  1  0  0  0  0
  4 55  1  0  0  0  0
  5 31  2  0  0  0  0
  6 35  1  0  0  0  0
  6 38  1  0  0  0  0
  7  9  1  0  0  0  0
  7 22  1  0  0  0  0
  7 26  1  0  0  0  0
  8 19  2  0  0  0  0
  8 21  1  0  0  0  0
  9 23  2  0  0  0  0
 10 19  1  0  0  0  0
 10 49  1  0  0  0  0
 10 50  1  0  0  0  0
 11 27  1  0  0  0  0
 11 31  1  0  0  0  0
 11 53  1  0  0  0  0
 12 31  1  0  0  0  0
 12 32  1  0  0  0  0
 12 54  1  0  0  0  0
 13 14  2  0  0  0  0
 13 15  1  0  0  0  0
 13 19  1  0  0  0  0
 14 16  1  0  0  0  0
 15 18  1  0  0  0  0
 15 20  2  0  0  0  0
 16 17  1  0  0  0  0
 16 21  2  0  0  0  0
 17 22  2  0  0  0  0
 17 23  1  0  0  0  0
 18 24  2  0  0  0  0
 18 25  1  0  0  0  0
 20 39  1  0  0  0  0
 21 40  1  0  0  0  0
 22 41  1  0  0  0  0
 23 42  1  0  0  0  0
 24 28  1  0  0  0  0
 24 43  1  0  0  0  0
 25 29  2  0  0  0  0
 25 44  1  0  0  0  0
 26 30  1  0  0  0  0
 26 45  1  0  0  0  0
 26 46  1  0  0  0  0
 27 28  2  0  0  0  0
 27 29  1  0  0  0  0
 28 47  1  0  0  0  0
 29 48  1  0  0  0  0
 30 51  1  0  0  0  0
 30 52  1  0  0  0  0
 32 33  2  0  0  0  0
 32 34  1  0  0  0  0
 33 36  1  0  0  0  0
 33 56  1  0  0  0  0
 34 37  2  0  0  0  0
 34 57  1  0  0  0  0
 35 36  2  0  0  0  0
 35 37  1  0  0  0  0
 36 58  1  0  0  0  0
 37 59  1  0  0  0  0
 38 60  1  0  0  0  0
M  END
> <PUBCHEM_COMPOUND_CID>
46223254

> <PUBCHEM_COMPOUND_CANONICALIZED>
1

> <PUBCHEM_CACTVS_COMPLEXITY>
771

> <PUBCHEM_CACTVS_HBOND_ACCEPTOR>
9

> <PUBCHEM_CACTVS_HBOND_DONOR>
4

> <PUBCHEM_CACTVS_ROTATABLE_BOND>
8

> <PUBCHEM_CACTVS_SUBSKEYS>
AAADceB7sYBAAAAAAAAAAAAAAAAAAWJAAAA8YIAAAAAAAFgB/gAAHwQYCAAADAzl2ha999LIFgiuAjZndACTjKkxqjAY2DAubJiONuLk8duEtCxs3BP46CewwMAOiEAAAAAAAAAQgAAAAAAAAAAAAAAAAA==

> <PUBCHEM_IUPAC_OPENEYE_NAME>
1-[4-[4-amino-7-[1-(2-hydroxyethyl)pyrazol-4-yl]thieno[3,2-c]pyridin-3-yl]phenyl]-3-[4-(difluoromethoxy)phenyl]urea

> <PUBCHEM_IUPAC_CAS_NAME>
1-[4-[4-amino-7-[1-(2-hydroxyethyl)-4-pyrazolyl]-3-thieno[3,2-c]pyridinyl]phenyl]-3-[4-(difluoromethoxy)phenyl]urea

> <PUBCHEM_IUPAC_NAME_MARKUP>
1-[4-[4-amino-7-[1-(2-hydroxyethyl)pyrazol-4-yl]thieno[3,2-c]pyridin-3-yl]phenyl]-3-[4-(difluoromethoxy)phenyl]urea

> <PUBCHEM_IUPAC_NAME>
1-[4-[4-amino-7-[1-(2-hydroxyethyl)pyrazol-4-yl]thieno[3,2-c]pyridin-3-yl]phenyl]-3-[4-(difluoromethoxy)phenyl]urea

> <PUBCHEM_IUPAC_SYSTEMATIC_NAME>
1-[4-[4-azanyl-7-[1-(2-hydroxyethyl)pyrazol-4-yl]thieno[3,2-c]pyridin-3-yl]phenyl]-3-[4-[bis(fluoranyl)methoxy]phenyl]urea

> <PUBCHEM_IUPAC_TRADITIONAL_NAME>
1-[4-[4-amino-7-[1-(2-hydroxyethyl)pyrazol-4-yl]thieno[3,2-c]pyridin-3-yl]phenyl]-3-[4-(difluoromethoxy)phenyl]urea

> <PUBCHEM_IUPAC_INCHI>
InChI=1S/C26H22F2N6O3S/c27-25(28)37-19-7-5-18(6-8-19)33-26(36)32-17-3-1-15(2-4-17)21-14-38-23-20(12-30-24(29)22(21)23)16-11-31-34(13-16)9-10-35/h1-8,11-14,25,35H,9-10H2,(H2,29,30)(H2,32,33,36)

> <PUBCHEM_IUPAC_INCHIKEY>
VCFDMLBPASGZTP-UHFFFAOYSA-N

> <PUBCHEM_XLOGP3_AA>
3.8

> <PUBCHEM_EXACT_MASS>
536.14421608

> <PUBCHEM_MOLECULAR_FORMULA>
C26H22F2N6O3S

> <PUBCHEM_MOLECULAR_WEIGHT>
536.6

> <PUBCHEM_SMILES>
C1=CC(=CC=C1C2=CSC3=C2C(=NC=C3C4=CN(N=C4)CCO)N)NC(=O)NC5=CC=C(C=C5)OC(F)F

> <PUBCHEM_OPENEYE_CAN_SMILES>
C1=CC(=CC=C1C2=CSC3=C2C(=NC=C3C4=CN(N=C4)CCO)N)NC(=O)NC5=CC=C(C=C5)OC(F)F

> <PUBCHEM_OPENEYE_ISO_SMILES>
C1=CC(=CC=C1C2=CSC3=C2C(=NC=C3C4=CN(N=C4)CCO)N)NC(=O)NC5=CC=C(C=C5)OC(F)F

> <PUBCHEM_CACTVS_TPSA>
156

> <PUBCHEM_MONOISOTOPIC_WEIGHT>
536.14421608

> <PUBCHEM_TOTAL_CHARGE>
0

> <PUBCHEM_HEAVY_ATOM_COUNT>
38

> <PUBCHEM_ATOM_DEF_STEREO_COUNT>
0

> <PUBCHEM_ATOM_UDEF_STEREO_COUNT>
0

> <PUBCHEM_BOND_DEF_STEREO_COUNT>
0

> <PUBCHEM_BOND_UDEF_STEREO_COUNT>
0

> <PUBCHEM_ISOTOPIC_ATOM_COUNT>
0

> <PUBCHEM_COMPONENT_COUNT>
1

> <PUBCHEM_CACTVS_TAUTO_COUNT>
-1

> <PUBCHEM_COORDINATE_TYPE>
1
5
255

> <PUBCHEM_BONDANNOTATIONS>
1  14  8
1  20  8
13  14  8
13  15  8
13  19  8
14  16  8
15  20  8
16  21  8
17  22  8
17  23  8
18  24  8
18  25  8
24  28  8
25  29  8
27  28  8
27  29  8
32  33  8
32  34  8
33  36  8
34  37  8
35  36  8
35  37  8
7  22  8
7  9  8
8  19  8
8  21  8
9  23  8

$$$$
