5018815
  -OEChem-03202504222D

 54 57  0     0  0  0  0  0  0999 V2000
    4.5923    0.6384    0.0000 O   0  0  0  0  0  0  0  0  0  0  0  0
   11.6398   -0.4274    0.0000 O   0  0  0  0  0  0  0  0  0  0  0  0
   10.8308    2.1604    0.0000 O   0  0  0  0  0  0  0  0  0  0  0  0
    3.7320   -0.8650    0.0000 N   0  0  0  0  0  0  0  0  0  0  0  0
    5.4641   -0.8583    0.0000 N   0  0  0  0  0  0  0  0  0  0  0  0
    8.9942   -0.8341    0.0000 N   0  0  0  0  0  0  0  0  0  0  0  0
    8.9942    1.1659    0.0000 N   0  0  0  0  0  0  0  0  0  0  0  0
    2.8641   -0.3683    0.0000 C   0  0  0  0  0  0  0  0  0  0  0  0
    3.7359   -1.8650    0.0000 C   0  0  0  0  0  0  0  0  0  0  0  0
    2.0000   -0.8716    0.0000 C   0  0  0  0  0  0  0  0  0  0  0  0
    2.8602    0.6317    0.0000 C   0  0  0  0  0  0  0  0  0  0  0  0
    2.8718   -2.3683    0.0000 C   0  0  0  0  0  0  0  0  0  0  0  0
    4.6038   -2.3616    0.0000 C   0  0  0  0  0  0  0  0  0  0  0  0
    4.5961   -0.3616    0.0000 C   0  0  0  0  0  0  0  0  0  0  0  0
    6.3282   -0.3550    0.0000 C   0  0  0  0  0  0  0  0  0  0  0  0
    8.1282   -0.3341    0.0000 C   0  0  0  0  0  0  0  0  0  0  0  0
    7.2342   -0.8688    0.0000 C   0  0  0  0  0  0  0  0  0  0  0  0
    8.1282    0.6659    0.0000 C   0  0  0  0  0  0  0  0  0  0  0  0
    6.3282    0.6867    0.0000 C   0  0  0  0  0  0  0  0  0  0  0  0
    7.2342    1.2005    0.0000 C   0  0  0  0  0  0  0  0  0  0  0  0
    9.8602   -0.3341    0.0000 C   0  0  0  0  0  0  0  0  0  0  0  0
    9.8602    0.6659    0.0000 C   0  0  0  0  0  0  0  0  0  0  0  0
   10.7263   -0.8341    0.0000 C   0  0  0  0  0  0  0  0  0  0  0  0
   10.7263    1.1659    0.0000 C   0  0  0  0  0  0  0  0  0  0  0  0
   10.8308   -1.8287    0.0000 C   0  0  0  0  0  0  0  0  0  0  0  0
   11.6398    0.7591    0.0000 C   0  0  0  0  0  0  0  0  0  0  0  0
   11.8089   -2.0366    0.0000 C   0  0  0  0  0  0  0  0  0  0  0  0
   12.3089    1.5023    0.0000 C   0  0  0  0  0  0  0  0  0  0  0  0
   12.3089   -1.1706    0.0000 C   0  0  0  0  0  0  0  0  0  0  0  0
   11.8089    2.3683    0.0000 C   0  0  0  0  0  0  0  0  0  0  0  0
    2.8665   -0.9883    0.0000 H   0  0  0  0  0  0  0  0  0  0  0  0
    4.2716   -1.5529    0.0000 H   0  0  0  0  0  0  0  0  0  0  0  0
    1.6879   -0.3359    0.0000 H   0  0  0  0  0  0  0  0  0  0  0  0
    1.4643   -1.1837    0.0000 H   0  0  0  0  0  0  0  0  0  0  0  0
    2.3121   -1.4074    0.0000 H   0  0  0  0  0  0  0  0  0  0  0  0
    3.4802    0.6341    0.0000 H   0  0  0  0  0  0  0  0  0  0  0  0
    2.8578    1.2517    0.0000 H   0  0  0  0  0  0  0  0  0  0  0  0
    2.2402    0.6293    0.0000 H   0  0  0  0  0  0  0  0  0  0  0  0
    2.5597   -1.8326    0.0000 H   0  0  0  0  0  0  0  0  0  0  0  0
    2.3361   -2.6804    0.0000 H   0  0  0  0  0  0  0  0  0  0  0  0
    3.1839   -2.9040    0.0000 H   0  0  0  0  0  0  0  0  0  0  0  0
    4.2959   -2.8997    0.0000 H   0  0  0  0  0  0  0  0  0  0  0  0
    5.1420   -2.6696    0.0000 H   0  0  0  0  0  0  0  0  0  0  0  0
    4.9118   -1.8235    0.0000 H   0  0  0  0  0  0  0  0  0  0  0  0
    5.4665   -1.4783    0.0000 H   0  0  0  0  0  0  0  0  0  0  0  0
    7.2414   -1.4888    0.0000 H   0  0  0  0  0  0  0  0  0  0  0  0
    5.7924    0.9987    0.0000 H   0  0  0  0  0  0  0  0  0  0  0  0
    7.2414    1.8205    0.0000 H   0  0  0  0  0  0  0  0  0  0  0  0
   10.3700   -2.2435    0.0000 H   0  0  0  0  0  0  0  0  0  0  0  0
   11.7687    0.1527    0.0000 H   0  0  0  0  0  0  0  0  0  0  0  0
   12.0611   -2.6030    0.0000 H   0  0  0  0  0  0  0  0  0  0  0  0
   12.9255    1.4375    0.0000 H   0  0  0  0  0  0  0  0  0  0  0  0
   12.9255   -1.1057    0.0000 H   0  0  0  0  0  0  0  0  0  0  0  0
   12.0611    2.9347    0.0000 H   0  0  0  0  0  0  0  0  0  0  0  0
  1 14  2  0  0  0  0
  2 23  1  0  0  0  0
  2 29  1  0  0  0  0
  3 24  1  0  0  0  0
  3 30  1  0  0  0  0
  4  8  1  0  0  0  0
  4  9  1  0  0  0  0
  4 14  1  0  0  0  0
  5 14  1  0  0  0  0
  5 15  1  0  0  0  0
  5 45  1  0  0  0  0
  6 16  1  0  0  0  0
  6 21  2  0  0  0  0
  7 18  1  0  0  0  0
  7 22  2  0  0  0  0
  8 10  1  0  0  0  0
  8 11  1  0  0  0  0
  8 31  1  0  0  0  0
  9 12  1  0  0  0  0
  9 13  1  0  0  0  0
  9 32  1  0  0  0  0
 10 33  1  0  0  0  0
 10 34  1  0  0  0  0
 10 35  1  0  0  0  0
 11 36  1  0  0  0  0
 11 37  1  0  0  0  0
 11 38  1  0  0  0  0
 12 39  1  0  0  0  0
 12 40  1  0  0  0  0
 12 41  1  0  0  0  0
 13 42  1  0  0  0  0
 13 43  1  0  0  0  0
 13 44  1  0  0  0  0
 15 17  2  0  0  0  0
 15 19  1  0  0  0  0
 16 17  1  0  0  0  0
 16 18  2  0  0  0  0
 17 46  1  0  0  0  0
 18 20  1  0  0  0  0
 19 20  2  0  0  0  0
 19 47  1  0  0  0  0
 20 48  1  0  0  0  0
 21 22  1  0  0  0  0
 21 23  1  0  0  0  0
 22 24  1  0  0  0  0
 23 25  2  0  0  0  0
 24 26  2  0  0  0  0
 25 27  1  0  0  0  0
 25 49  1  0  0  0  0
 26 28  1  0  0  0  0
 26 50  1  0  0  0  0
 27 29  2  0  0  0  0
 27 51  1  0  0  0  0
 28 30  2  0  0  0  0
 28 52  1  0  0  0  0
 29 53  1  0  0  0  0
 30 54  1  0  0  0  0
M  END
> <PUBCHEM_COMPOUND_CID>
5018815

> <PUBCHEM_COMPOUND_CANONICALIZED>
1

> <PUBCHEM_CACTVS_COMPLEXITY>
579

> <PUBCHEM_CACTVS_HBOND_ACCEPTOR>
5

> <PUBCHEM_CACTVS_HBOND_DONOR>
1

> <PUBCHEM_CACTVS_ROTATABLE_BOND>
5

> <PUBCHEM_CACTVS_SUBSKEYS>
AAADceB7sAAAAAAAAAAAAAAAAAAAASJAAAA8QAAAAAAAAACx/gAAHgAQAAAACCzhlgYzxLPIFECoAaxy1ASCiCQnMiAImCG+fNiOZvrE9fuXPaju1hPY6efb2aOQAACAAAQAACAAAQAACAAAQAAAAAAAAA==

> <PUBCHEM_IUPAC_OPENEYE_NAME>
3-[2,3-bis(2-furyl)quinoxalin-6-yl]-1,1-diisopropyl-urea

> <PUBCHEM_IUPAC_CAS_NAME>
3-[2,3-bis(2-furanyl)-6-quinoxalinyl]-1,1-di(propan-2-yl)urea

> <PUBCHEM_IUPAC_NAME_MARKUP>
3-[2,3-bis(furan-2-yl)quinoxalin-6-yl]-1,1-di(propan-2-yl)urea

> <PUBCHEM_IUPAC_NAME>
3-[2,3-bis(furan-2-yl)quinoxalin-6-yl]-1,1-di(propan-2-yl)urea

> <PUBCHEM_IUPAC_SYSTEMATIC_NAME>
3-[2,3-bis(furan-2-yl)quinoxalin-6-yl]-1,1-di(propan-2-yl)urea

> <PUBCHEM_IUPAC_TRADITIONAL_NAME>
3-[2,3-bis(2-furyl)quinoxalin-6-yl]-1,1-diisopropyl-urea

> <PUBCHEM_IUPAC_INCHI>
InChI=1S/C23H24N4O3/c1-14(2)27(15(3)4)23(28)24-16-9-10-17-18(13-16)26-22(20-8-6-12-30-20)21(25-17)19-7-5-11-29-19/h5-15H,1-4H3,(H,24,28)

> <PUBCHEM_IUPAC_INCHIKEY>
PBNKREGCQAYWMQ-UHFFFAOYSA-N

> <PUBCHEM_XLOGP3_AA>
3.5

> <PUBCHEM_EXACT_MASS>
404.18484064

> <PUBCHEM_MOLECULAR_FORMULA>
C23H24N4O3

> <PUBCHEM_MOLECULAR_WEIGHT>
404.5

> <PUBCHEM_SMILES>
CC(C)N(C(C)C)C(=O)NC1=CC2=C(C=C1)N=C(C(=N2)C3=CC=CO3)C4=CC=CO4

> <PUBCHEM_OPENEYE_CAN_SMILES>
CC(C)N(C(C)C)C(=O)NC1=CC2=C(C=C1)N=C(C(=N2)C3=CC=CO3)C4=CC=CO4

> <PUBCHEM_OPENEYE_ISO_SMILES>
CC(C)N(C(C)C)C(=O)NC1=CC2=C(C=C1)N=C(C(=N2)C3=CC=CO3)C4=CC=CO4

> <PUBCHEM_CACTVS_TPSA>
84.4

> <PUBCHEM_MONOISOTOPIC_WEIGHT>
404.18484064

> <PUBCHEM_TOTAL_CHARGE>
0

> <PUBCHEM_HEAVY_ATOM_COUNT>
30

> <PUBCHEM_ATOM_DEF_STEREO_COUNT>
0

> <PUBCHEM_ATOM_UDEF_STEREO_COUNT>
0

> <PUBCHEM_BOND_DEF_STEREO_COUNT>
0

> <PUBCHEM_BOND_UDEF_STEREO_COUNT>
0

> <PUBCHEM_ISOTOPIC_ATOM_COUNT>
0

> <PUBCHEM_COMPONENT_COUNT>
1

> <PUBCHEM_CACTVS_TAUTO_COUNT>
-1

> <PUBCHEM_COORDINATE_TYPE>
1
5
255

> <PUBCHEM_BONDANNOTATIONS>
15  17  8
15  19  8
16  17  8
16  18  8
18  20  8
19  20  8
2  23  8
2  29  8
21  22  8
23  25  8
24  26  8
25  27  8
26  28  8
27  29  8
28  30  8
3  24  8
3  30  8
6  16  8
6  21  8
7  18  8
7  22  8

$$$$
