24771867
  -OEChem-03202506362D

 57 61  0     0  0  0  0  0  0999 V2000
   13.0611   -2.5295    0.0000 Cl  0  0  0  0  0  0  0  0  0  0  0  0
   12.2450    2.5295    0.0000 F   0  0  0  0  0  0  0  0  0  0  0  0
   13.0159   -0.8478    0.0000 O   0  0  0  0  0  0  0  0  0  0  0  0
    4.7844    1.0698    0.0000 O   0  0  0  0  0  0  0  0  0  0  0  0
    2.5932   -0.9792    0.0000 O   0  0  0  0  0  0  0  0  0  0  0  0
    3.0973    0.6779    0.0000 O   0  0  0  0  0  0  0  0  0  0  0  0
   11.0320    1.4002    0.0000 N   0  0  0  0  0  0  0  0  0  0  0  0
    8.8785   -1.0768    0.0000 N   0  0  0  0  0  0  0  0  0  0  0  0
    7.6490    0.2381    0.0000 N   0  0  0  0  0  0  0  0  0  0  0  0
    7.1504   -1.4604    0.0000 N   0  0  0  0  0  0  0  0  0  0  0  0
   10.5320   -0.7905    0.0000 C   0  0  0  0  0  0  0  0  0  0  0  0
   11.4330   -0.3566    0.0000 C   0  0  0  0  0  0  0  0  0  0  0  0
    9.6311   -0.3566    0.0000 C   0  0  0  0  0  0  0  0  0  0  0  0
   11.6555    0.6183    0.0000 C   0  0  0  0  0  0  0  0  0  0  0  0
    9.4085    0.6183    0.0000 C   0  0  0  0  0  0  0  0  0  0  0  0
   10.0320    1.4002    0.0000 C   0  0  0  0  0  0  0  0  0  0  0  0
   12.6304    0.8408    0.0000 C   0  0  0  0  0  0  0  0  0  0  0  0
   10.4382   -1.8279    0.0000 C   0  0  0  0  0  0  0  0  0  0  0  0
   12.3026   -0.9300    0.0000 C   0  0  0  0  0  0  0  0  0  0  0  0
    8.4180    0.9407    0.0000 C   0  0  0  0  0  0  0  0  0  0  0  0
   11.2943   -2.4213    0.0000 C   0  0  0  0  0  0  0  0  0  0  0  0
   12.2327   -1.9693    0.0000 C   0  0  0  0  0  0  0  0  0  0  0  0
    7.8808   -0.7774    0.0000 C   0  0  0  0  0  0  0  0  0  0  0  0
   13.3106    0.1078    0.0000 C   0  0  0  0  0  0  0  0  0  0  0  0
   12.9252    1.7964    0.0000 C   0  0  0  0  0  0  0  0  0  0  0  0
   14.2855    0.3303    0.0000 C   0  0  0  0  0  0  0  0  0  0  0  0
    6.1937   -1.1694    0.0000 C   0  0  0  0  0  0  0  0  0  0  0  0
   13.9001    2.0189    0.0000 C   0  0  0  0  0  0  0  0  0  0  0  0
   14.5803    1.2859    0.0000 C   0  0  0  0  0  0  0  0  0  0  0  0
    5.9674   -0.1953    0.0000 C   0  0  0  0  0  0  0  0  0  0  0  0
    5.4633   -1.8524    0.0000 C   0  0  0  0  0  0  0  0  0  0  0  0
    5.0107    0.0958    0.0000 C   0  0  0  0  0  0  0  0  0  0  0  0
    4.2803   -0.5872    0.0000 C   0  0  0  0  0  0  0  0  0  0  0  0
    4.5066   -1.5613    0.0000 C   0  0  0  0  0  0  0  0  0  0  0  0
   13.6960   -1.5808    0.0000 C   0  0  0  0  0  0  0  0  0  0  0  0
    3.3236   -0.2962    0.0000 C   0  0  0  0  0  0  0  0  0  0  0  0
    5.5148    1.7528    0.0000 C   0  0  0  0  0  0  0  0  0  0  0  0
   10.1700    2.0046    0.0000 H   0  0  0  0  0  0  0  0  0  0  0  0
    9.4734    1.6692    0.0000 H   0  0  0  0  0  0  0  0  0  0  0  0
    9.8765   -2.0904    0.0000 H   0  0  0  0  0  0  0  0  0  0  0  0
   12.8580   -0.6546    0.0000 H   0  0  0  0  0  0  0  0  0  0  0  0
    8.2871    1.5467    0.0000 H   0  0  0  0  0  0  0  0  0  0  0  0
   11.2456   -3.0394    0.0000 H   0  0  0  0  0  0  0  0  0  0  0  0
    7.2907   -2.0644    0.0000 H   0  0  0  0  0  0  0  0  0  0  0  0
   14.7073   -0.1242    0.0000 H   0  0  0  0  0  0  0  0  0  0  0  0
   14.0829    2.6114    0.0000 H   0  0  0  0  0  0  0  0  0  0  0  0
   15.1848    1.4238    0.0000 H   0  0  0  0  0  0  0  0  0  0  0  0
    6.4203    0.2282    0.0000 H   0  0  0  0  0  0  0  0  0  0  0  0
    5.6036   -2.4563    0.0000 H   0  0  0  0  0  0  0  0  0  0  0  0
    4.0537   -1.9848    0.0000 H   0  0  0  0  0  0  0  0  0  0  0  0
   13.2415   -2.0026    0.0000 H   0  0  0  0  0  0  0  0  0  0  0  0
   14.1177   -2.0353    0.0000 H   0  0  0  0  0  0  0  0  0  0  0  0
   14.1505   -1.1591    0.0000 H   0  0  0  0  0  0  0  0  0  0  0  0
    5.9383    1.3000    0.0000 H   0  0  0  0  0  0  0  0  0  0  0  0
    5.9677    2.1763    0.0000 H   0  0  0  0  0  0  0  0  0  0  0  0
    5.0914    2.2057    0.0000 H   0  0  0  0  0  0  0  0  0  0  0  0
    2.0000   -0.7987    0.0000 H   0  0  0  0  0  0  0  0  0  0  0  0
  1 22  1  0  0  0  0
  2 25  1  0  0  0  0
  3 24  1  0  0  0  0
  3 35  1  0  0  0  0
  4 32  1  0  0  0  0
  4 37  1  0  0  0  0
  5 36  1  0  0  0  0
  5 57  1  0  0  0  0
  6 36  2  0  0  0  0
  7 14  2  0  0  0  0
  7 16  1  0  0  0  0
  8 13  2  0  0  0  0
  8 23  1  0  0  0  0
  9 20  1  0  0  0  0
  9 23  2  0  0  0  0
 10 23  1  0  0  0  0
 10 27  1  0  0  0  0
 10 44  1  0  0  0  0
 11 12  2  0  0  0  0
 11 13  1  0  0  0  0
 11 18  1  0  0  0  0
 12 14  1  0  0  0  0
 12 19  1  0  0  0  0
 13 15  1  0  0  0  0
 14 17  1  0  0  0  0
 15 16  1  0  0  0  0
 15 20  2  0  0  0  0
 16 38  1  0  0  0  0
 16 39  1  0  0  0  0
 17 24  2  0  0  0  0
 17 25  1  0  0  0  0
 18 21  2  0  0  0  0
 18 40  1  0  0  0  0
 19 22  2  0  0  0  0
 19 41  1  0  0  0  0
 20 42  1  0  0  0  0
 21 22  1  0  0  0  0
 21 43  1  0  0  0  0
 24 26  1  0  0  0  0
 25 28  2  0  0  0  0
 26 29  2  0  0  0  0
 26 45  1  0  0  0  0
 27 30  2  0  0  0  0
 27 31  1  0  0  0  0
 28 29  1  0  0  0  0
 28 46  1  0  0  0  0
 29 47  1  0  0  0  0
 30 32  1  0  0  0  0
 30 48  1  0  0  0  0
 31 34  2  0  0  0  0
 31 49  1  0  0  0  0
 32 33  2  0  0  0  0
 33 34  1  0  0  0  0
 33 36  1  0  0  0  0
 34 50  1  0  0  0  0
 35 51  1  0  0  0  0
 35 52  1  0  0  0  0
 35 53  1  0  0  0  0
 37 54  1  0  0  0  0
 37 55  1  0  0  0  0
 37 56  1  0  0  0  0
M  END
> <PUBCHEM_COMPOUND_CID>
24771867

> <PUBCHEM_COMPOUND_CANONICALIZED>
1

> <PUBCHEM_CACTVS_COMPLEXITY>
836

> <PUBCHEM_CACTVS_HBOND_ACCEPTOR>
9

> <PUBCHEM_CACTVS_HBOND_DONOR>
2

> <PUBCHEM_CACTVS_ROTATABLE_BOND>
6

> <PUBCHEM_CACTVS_SUBSKEYS>
AAADceB7uQAEAAAAAAAAAAAAAAAAAAAAAAA8YMEABAAAAAAB1AAAHwIQCAAADA7Bni4/3pbIFgCoAzT3bACCiCk1J6AJ2CEubtiML7bF/9uEdWhv8BtI+aeY2fOejAAAIgAYAAAYAABEADAAAAAAAAAAAA==

> <PUBCHEM_IUPAC_OPENEYE_NAME>
4-[[9-chloro-7-(2-fluoro-6-methoxy-phenyl)-5H-pyrimido[5,4-d][2]benzazepin-2-yl]amino]-2-methoxy-benzoic acid

> <PUBCHEM_IUPAC_CAS_NAME>
4-[[9-chloro-7-(2-fluoro-6-methoxyphenyl)-5H-pyrimido[5,4-d][2]benzazepin-2-yl]amino]-2-methoxybenzoic acid

> <PUBCHEM_IUPAC_NAME_MARKUP>
4-[[9-chloro-7-(2-fluoro-6-methoxyphenyl)-5<I>H</I>-pyrimido[5,4-d][2]benzazepin-2-yl]amino]-2-methoxybenzoic acid

> <PUBCHEM_IUPAC_NAME>
4-[[9-chloro-7-(2-fluoro-6-methoxyphenyl)-5H-pyrimido[5,4-d][2]benzazepin-2-yl]amino]-2-methoxybenzoic acid

> <PUBCHEM_IUPAC_SYSTEMATIC_NAME>
4-[[9-chloranyl-7-(2-fluoranyl-6-methoxy-phenyl)-5H-pyrimido[5,4-d][2]benzazepin-2-yl]amino]-2-methoxy-benzoic acid

> <PUBCHEM_IUPAC_TRADITIONAL_NAME>
4-[[9-chloro-7-(2-fluoro-6-methoxy-phenyl)-5H-pyrimido[5,4-d][2]benzazepin-2-yl]amino]-2-methoxy-benzoic acid

> <PUBCHEM_IUPAC_INCHI>
InChI=1S/C27H20ClFN4O4/c1-36-21-5-3-4-20(29)23(21)25-19-10-15(28)6-8-17(19)24-14(12-30-25)13-31-27(33-24)32-16-7-9-18(26(34)35)22(11-16)37-2/h3-11,13H,12H2,1-2H3,(H,34,35)(H,31,32,33)

> <PUBCHEM_IUPAC_INCHIKEY>
ZLHFILGSQDJULK-UHFFFAOYSA-N

> <PUBCHEM_XLOGP3_AA>
5

> <PUBCHEM_EXACT_MASS>
518.1157110

> <PUBCHEM_MOLECULAR_FORMULA>
C27H20ClFN4O4

> <PUBCHEM_MOLECULAR_WEIGHT>
518.9

> <PUBCHEM_SMILES>
COC1=C(C(=CC=C1)F)C2=NCC3=CN=C(N=C3C4=C2C=C(C=C4)Cl)NC5=CC(=C(C=C5)C(=O)O)OC

> <PUBCHEM_OPENEYE_CAN_SMILES>
COC1=C(C(=CC=C1)F)C2=NCC3=CN=C(N=C3C4=C2C=C(C=C4)Cl)NC5=CC(=C(C=C5)C(=O)O)OC

> <PUBCHEM_OPENEYE_ISO_SMILES>
COC1=C(C(=CC=C1)F)C2=NCC3=CN=C(N=C3C4=C2C=C(C=C4)Cl)NC5=CC(=C(C=C5)C(=O)O)OC

> <PUBCHEM_CACTVS_TPSA>
106

> <PUBCHEM_MONOISOTOPIC_WEIGHT>
518.1157110

> <PUBCHEM_TOTAL_CHARGE>
0

> <PUBCHEM_HEAVY_ATOM_COUNT>
37

> <PUBCHEM_ATOM_DEF_STEREO_COUNT>
0

> <PUBCHEM_ATOM_UDEF_STEREO_COUNT>
0

> <PUBCHEM_BOND_DEF_STEREO_COUNT>
0

> <PUBCHEM_BOND_UDEF_STEREO_COUNT>
0

> <PUBCHEM_ISOTOPIC_ATOM_COUNT>
0

> <PUBCHEM_COMPONENT_COUNT>
1

> <PUBCHEM_CACTVS_TAUTO_COUNT>
-1

> <PUBCHEM_COORDINATE_TYPE>
1
5
255

> <PUBCHEM_BONDANNOTATIONS>
11  12  8
11  18  8
12  19  8
13  15  8
15  20  8
17  24  8
17  25  8
18  21  8
19  22  8
21  22  8
24  26  8
25  28  8
26  29  8
27  30  8
27  31  8
28  29  8
30  32  8
31  34  8
32  33  8
33  34  8
8  13  8
8  23  8
9  20  8
9  23  8

$$$$
