21874004
  -OEChem-03202502122D

 65 69  0     1  0  0  0  0  0999 V2000
    5.5000   -4.7457    0.0000 O   0  0  0  0  0  0  0  0  0  0  0  0
    5.0000   -2.1476    0.0000 O   0  0  0  0  0  0  0  0  0  0  0  0
   10.9372   -1.7888    0.0000 O   0  0  0  0  0  0  0  0  0  0  0  0
   11.5041    2.7586    0.0000 N   0  0  0  0  0  0  0  0  0  0  0  0
    6.5000   -3.0136    0.0000 N   0  0  0  0  0  0  0  0  0  0  0  0
   12.1222    4.6607    0.0000 N   0  0  0  0  0  0  0  0  0  0  0  0
    8.9809   -3.8227    0.0000 N   0  0  0  0  0  0  0  0  0  0  0  0
    9.5687   -3.0136    0.0000 N   0  0  0  0  0  0  0  0  0  0  0  0
    9.2899   -1.2536    0.0000 N   0  0  0  0  0  0  0  0  0  0  0  0
   12.4823    2.9665    0.0000 C   0  0  0  0  0  0  0  0  0  0  0  0
   10.8350    3.5017    0.0000 C   0  0  0  0  0  0  0  0  0  0  0  0
    7.0836   -2.2089    0.0000 C   0  0  0  0  0  0  0  0  0  0  0  0
   12.7913    3.9175    0.0000 C   0  0  0  0  0  0  0  0  0  0  0  0
   11.1440    4.4528    0.0000 C   0  0  0  0  0  0  0  0  0  0  0  0
    8.0298   -2.5136    0.0000 C   0  0  0  0  0  0  0  0  0  0  0  0
    7.0836   -3.8184    0.0000 C   0  0  0  0  0  0  0  0  0  0  0  0
    8.0298   -3.5136    0.0000 C   0  0  0  0  0  0  0  0  0  0  0  0
    8.9809   -2.2046    0.0000 C   0  0  0  0  0  0  0  0  0  0  0  0
   11.1951    1.8075    0.0000 C   0  0  0  0  0  0  0  0  0  0  0  0
    5.5000   -3.0136    0.0000 C   0  0  0  0  0  0  0  0  0  0  0  0
   12.4312    5.6117    0.0000 C   0  0  0  0  0  0  0  0  0  0  0  0
    5.0000   -3.8797    0.0000 C   0  0  3  0  0  0  0  0  0  0  0  0
   10.2170    1.5996    0.0000 C   0  0  0  0  0  0  0  0  0  0  0  0
   11.8642    1.0644    0.0000 C   0  0  0  0  0  0  0  0  0  0  0  0
   10.5771   -0.0946    0.0000 C   0  0  0  0  0  0  0  0  0  0  0  0
   10.2681   -1.0457    0.0000 C   0  0  0  0  0  0  0  0  0  0  0  0
    9.9079    0.6485    0.0000 C   0  0  0  0  0  0  0  0  0  0  0  0
   11.5552    0.1133    0.0000 C   0  0  0  0  0  0  0  0  0  0  0  0
    4.0000   -3.8797    0.0000 C   0  0  0  0  0  0  0  0  0  0  0  0
    3.5000   -4.7457    0.0000 C   0  0  0  0  0  0  0  0  0  0  0  0
    3.5000   -3.0136    0.0000 C   0  0  0  0  0  0  0  0  0  0  0  0
    5.0000   -5.6117    0.0000 C   0  0  0  0  0  0  0  0  0  0  0  0
    2.5000   -4.7457    0.0000 C   0  0  0  0  0  0  0  0  0  0  0  0
    2.5000   -3.0136    0.0000 C   0  0  0  0  0  0  0  0  0  0  0  0
    2.0000   -3.8797    0.0000 C   0  0  0  0  0  0  0  0  0  0  0  0
   12.5039    2.3468    0.0000 H   0  0  0  0  0  0  0  0  0  0  0  0
   13.0962    2.8802    0.0000 H   0  0  0  0  0  0  0  0  0  0  0  0
   10.2876    3.7928    0.0000 H   0  0  0  0  0  0  0  0  0  0  0  0
   10.4533    3.0131    0.0000 H   0  0  0  0  0  0  0  0  0  0  0  0
    7.3346   -1.6420    0.0000 H   0  0  0  0  0  0  0  0  0  0  0  0
    6.5462   -1.8997    0.0000 H   0  0  0  0  0  0  0  0  0  0  0  0
   13.3387    3.6264    0.0000 H   0  0  0  0  0  0  0  0  0  0  0  0
   13.1730    4.4061    0.0000 H   0  0  0  0  0  0  0  0  0  0  0  0
   11.1224    5.0724    0.0000 H   0  0  0  0  0  0  0  0  0  0  0  0
   10.5300    4.5390    0.0000 H   0  0  0  0  0  0  0  0  0  0  0  0
    6.5462   -4.1276    0.0000 H   0  0  0  0  0  0  0  0  0  0  0  0
    7.3346   -4.3853    0.0000 H   0  0  0  0  0  0  0  0  0  0  0  0
    9.1725   -4.4123    0.0000 H   0  0  0  0  0  0  0  0  0  0  0  0
   13.0208    5.4201    0.0000 H   0  0  0  0  0  0  0  0  0  0  0  0
   12.6228    6.2014    0.0000 H   0  0  0  0  0  0  0  0  0  0  0  0
   11.8415    5.8033    0.0000 H   0  0  0  0  0  0  0  0  0  0  0  0
    5.6200   -3.8797    0.0000 H   0  0  0  0  0  0  0  0  0  0  0  0
    8.8750   -0.7928    0.0000 H   0  0  0  0  0  0  0  0  0  0  0  0
    9.8021    2.0603    0.0000 H   0  0  0  0  0  0  0  0  0  0  0  0
   12.4707    1.1933    0.0000 H   0  0  0  0  0  0  0  0  0  0  0  0
    9.3015    0.5196    0.0000 H   0  0  0  0  0  0  0  0  0  0  0  0
   11.9701   -0.3474    0.0000 H   0  0  0  0  0  0  0  0  0  0  0  0
    3.8100   -5.2826    0.0000 H   0  0  0  0  0  0  0  0  0  0  0  0
    3.8100   -2.4767    0.0000 H   0  0  0  0  0  0  0  0  0  0  0  0
    4.4631   -5.3017    0.0000 H   0  0  0  0  0  0  0  0  0  0  0  0
    4.6900   -6.1487    0.0000 H   0  0  0  0  0  0  0  0  0  0  0  0
    5.5369   -5.9217    0.0000 H   0  0  0  0  0  0  0  0  0  0  0  0
    2.1900   -5.2826    0.0000 H   0  0  0  0  0  0  0  0  0  0  0  0
    2.1900   -2.4767    0.0000 H   0  0  0  0  0  0  0  0  0  0  0  0
    1.3800   -3.8797    0.0000 H   0  0  0  0  0  0  0  0  0  0  0  0
  1 22  1  0  0  0  0
  1 32  1  0  0  0  0
  2 20  2  0  0  0  0
  3 26  2  0  0  0  0
  4 10  1  0  0  0  0
  4 11  1  0  0  0  0
  4 19  1  0  0  0  0
  5 12  1  0  0  0  0
  5 16  1  0  0  0  0
  5 20  1  0  0  0  0
  6 13  1  0  0  0  0
  6 14  1  0  0  0  0
  6 21  1  0  0  0  0
  7  8  1  0  0  0  0
  7 17  1  0  0  0  0
  7 48  1  0  0  0  0
  8 18  2  0  0  0  0
  9 18  1  0  0  0  0
  9 26  1  0  0  0  0
  9 53  1  0  0  0  0
 10 13  1  0  0  0  0
 10 36  1  0  0  0  0
 10 37  1  0  0  0  0
 11 14  1  0  0  0  0
 11 38  1  0  0  0  0
 11 39  1  0  0  0  0
 12 15  1  0  0  0  0
 12 40  1  0  0  0  0
 12 41  1  0  0  0  0
 13 42  1  0  0  0  0
 13 43  1  0  0  0  0
 14 44  1  0  0  0  0
 14 45  1  0  0  0  0
 15 17  2  0  0  0  0
 15 18  1  0  0  0  0
 16 17  1  0  0  0  0
 16 46  1  0  0  0  0
 16 47  1  0  0  0  0
 19 23  2  0  0  0  0
 19 24  1  0  0  0  0
 20 22  1  0  0  0  0
 21 49  1  0  0  0  0
 21 50  1  0  0  0  0
 21 51  1  0  0  0  0
 22 29  1  0  0  0  0
 22 52  1  0  0  0  0
 23 27  1  0  0  0  0
 23 54  1  0  0  0  0
 24 28  2  0  0  0  0
 24 55  1  0  0  0  0
 25 26  1  0  0  0  0
 25 27  2  0  0  0  0
 25 28  1  0  0  0  0
 27 56  1  0  0  0  0
 28 57  1  0  0  0  0
 29 30  2  0  0  0  0
 29 31  1  0  0  0  0
 30 33  1  0  0  0  0
 30 58  1  0  0  0  0
 31 34  2  0  0  0  0
 31 59  1  0  0  0  0
 32 60  1  0  0  0  0
 32 61  1  0  0  0  0
 32 62  1  0  0  0  0
 33 35  2  0  0  0  0
 33 63  1  0  0  0  0
 34 35  1  0  0  0  0
 34 64  1  0  0  0  0
 35 65  1  0  0  0  0
M  END
> <PUBCHEM_COMPOUND_CID>
21874004

> <PUBCHEM_COMPOUND_CANONICALIZED>
1

> <PUBCHEM_CACTVS_COMPLEXITY>
731

> <PUBCHEM_CACTVS_HBOND_ACCEPTOR>
6

> <PUBCHEM_CACTVS_HBOND_DONOR>
2

> <PUBCHEM_CACTVS_ROTATABLE_BOND>
6

> <PUBCHEM_CACTVS_SUBSKEYS>
AAADceB7sAAAAAAAAAAAAAAAAAAAAWLAAAA8YIAAAAAWAAAB0AAAHgAYAAAADBzhngYz8JPjBACqAydycAKSBAIlAgAduSF4bNiKZjLA/d2VtQh03wPY6YeYyaCeCAAAAAAAAAAQAAAAAAAAAAAAAAAAAA==

> <PUBCHEM_IUPAC_OPENEYE_NAME>
N-[5-(2-methoxy-2-phenyl-acetyl)-4,6-dihydro-1H-pyrrolo[3,4-c]pyrazol-3-yl]-4-(4-methylpiperazin-1-yl)benzamide

> <PUBCHEM_IUPAC_CAS_NAME>
N-[5-(2-methoxy-1-oxo-2-phenylethyl)-4,6-dihydro-1H-pyrrolo[3,4-c]pyrazol-3-yl]-4-(4-methyl-1-piperazinyl)benzamide

> <PUBCHEM_IUPAC_NAME_MARKUP>
<I>N</I>-[5-(2-methoxy-2-phenylacetyl)-4,6-dihydro-1<I>H</I>-pyrrolo[3,4-c]pyrazol-3-yl]-4-(4-methylpiperazin-1-yl)benzamide

> <PUBCHEM_IUPAC_NAME>
N-[5-(2-methoxy-2-phenylacetyl)-4,6-dihydro-1H-pyrrolo[3,4-c]pyrazol-3-yl]-4-(4-methylpiperazin-1-yl)benzamide

> <PUBCHEM_IUPAC_SYSTEMATIC_NAME>
N-[5-(2-methoxy-2-phenyl-ethanoyl)-4,6-dihydro-1H-pyrrolo[3,4-c]pyrazol-3-yl]-4-(4-methylpiperazin-1-yl)benzamide

> <PUBCHEM_IUPAC_TRADITIONAL_NAME>
N-[5-(2-methoxy-2-phenyl-acetyl)-4,6-dihydro-1H-pyrrolo[3,4-c]pyrazol-3-yl]-4-(4-methylpiperazino)benzamide

> <PUBCHEM_IUPAC_INCHI>
InChI=1S/C26H30N6O3/c1-30-12-14-31(15-13-30)20-10-8-19(9-11-20)25(33)27-24-21-16-32(17-22(21)28-29-24)26(34)23(35-2)18-6-4-3-5-7-18/h3-11,23H,12-17H2,1-2H3,(H2,27,28,29,33)

> <PUBCHEM_IUPAC_INCHIKEY>
XKFTZKGMDDZMJI-UHFFFAOYSA-N

> <PUBCHEM_XLOGP3_AA>
1.8

> <PUBCHEM_EXACT_MASS>
474.23793884

> <PUBCHEM_MOLECULAR_FORMULA>
C26H30N6O3

> <PUBCHEM_MOLECULAR_WEIGHT>
474.6

> <PUBCHEM_SMILES>
CN1CCN(CC1)C2=CC=C(C=C2)C(=O)NC3=NNC4=C3CN(C4)C(=O)C(C5=CC=CC=C5)OC

> <PUBCHEM_OPENEYE_CAN_SMILES>
CN1CCN(CC1)C2=CC=C(C=C2)C(=O)NC3=NNC4=C3CN(C4)C(=O)C(C5=CC=CC=C5)OC

> <PUBCHEM_OPENEYE_ISO_SMILES>
CN1CCN(CC1)C2=CC=C(C=C2)C(=O)NC3=NNC4=C3CN(C4)C(=O)C(C5=CC=CC=C5)OC

> <PUBCHEM_CACTVS_TPSA>
93.8

> <PUBCHEM_MONOISOTOPIC_WEIGHT>
474.23793884

> <PUBCHEM_TOTAL_CHARGE>
0

> <PUBCHEM_HEAVY_ATOM_COUNT>
35

> <PUBCHEM_ATOM_DEF_STEREO_COUNT>
0

> <PUBCHEM_ATOM_UDEF_STEREO_COUNT>
1

> <PUBCHEM_BOND_DEF_STEREO_COUNT>
0

> <PUBCHEM_BOND_UDEF_STEREO_COUNT>
0

> <PUBCHEM_ISOTOPIC_ATOM_COUNT>
0

> <PUBCHEM_COMPONENT_COUNT>
1

> <PUBCHEM_CACTVS_TAUTO_COUNT>
-1

> <PUBCHEM_COORDINATE_TYPE>
1
5
255

> <PUBCHEM_BONDANNOTATIONS>
15  17  8
15  18  8
19  23  8
19  24  8
22  20  3
23  27  8
24  28  8
25  27  8
25  28  8
29  30  8
29  31  8
30  33  8
31  34  8
33  35  8
34  35  8
7  17  8
7  8  8
8  18  8

$$$$
