44410954
  -OEChem-03202505532D

 61 63  0     1  0  0  0  0  0999 V2000
   11.1787   -3.7772    0.0000 Cl  0  0  0  0  0  0  0  0  0  0  0  0
    9.4584   -2.7572    0.0000 F   0  0  0  0  0  0  0  0  0  0  0  0
    6.0010    2.2772    0.0000 O   0  0  0  0  0  0  0  0  0  0  0  0
    3.4030    1.7772    0.0000 O   0  0  0  0  0  0  0  0  0  0  0  0
    5.1350    0.7772    0.0000 N   0  0  3  0  0  0  0  0  0  0  0  0
    4.2690    3.2772    0.0000 N   0  0  0  0  0  0  0  0  0  0  0  0
    2.5369    0.2772    0.0000 N   0  0  0  0  0  0  0  0  0  0  0  0
    9.4931    2.3119    0.0000 N   0  0  0  0  0  0  0  0  0  0  0  0
    9.4815   -0.7574    0.0000 N   0  0  0  0  0  0  0  0  0  0  0  0
   10.3991    0.7564    0.0000 N   0  0  0  0  0  0  0  0  0  0  0  0
    4.2690    0.2772    0.0000 C   0  0  1  0  0  0  0  0  0  0  0  0
    5.1350    1.7772    0.0000 C   0  0  0  0  0  0  0  0  0  0  0  0
    6.0010    0.2772    0.0000 C   0  0  0  0  0  0  0  0  0  0  0  0
    4.2690    2.2772    0.0000 C   0  0  0  0  0  0  0  0  0  0  0  0
    6.8671    0.7772    0.0000 C   0  0  0  0  0  0  0  0  0  0  0  0
    4.2690   -0.7228    0.0000 C   0  0  0  0  0  0  0  0  0  0  0  0
    7.7331    0.2772    0.0000 C   0  0  0  0  0  0  0  0  0  0  0  0
    6.8671    1.7772    0.0000 C   0  0  0  0  0  0  0  0  0  0  0  0
    3.4030    0.7772    0.0000 C   0  0  0  0  0  0  0  0  0  0  0  0
    8.5991    0.7772    0.0000 C   0  0  0  0  0  0  0  0  0  0  0  0
    8.5991    1.7772    0.0000 C   0  0  0  0  0  0  0  0  0  0  0  0
    7.7331    2.2772    0.0000 C   0  0  0  0  0  0  0  0  0  0  0  0
    3.4030    3.7772    0.0000 C   0  0  0  0  0  0  0  0  0  0  0  0
    5.1350    3.7772    0.0000 C   0  0  0  0  0  0  0  0  0  0  0  0
    9.4931    0.2426    0.0000 C   0  0  0  0  0  0  0  0  0  0  0  0
   10.3991    1.7980    0.0000 C   0  0  0  0  0  0  0  0  0  0  0  0
    6.0010    3.2772    0.0000 C   0  0  0  0  0  0  0  0  0  0  0  0
   10.3417   -1.2674    0.0000 C   0  0  0  0  0  0  0  0  0  0  0  0
   10.3301   -2.2673    0.0000 C   0  0  0  0  0  0  0  0  0  0  0  0
   11.2134   -0.7774    0.0000 C   0  0  0  0  0  0  0  0  0  0  0  0
   11.1903   -2.7773    0.0000 C   0  0  0  0  0  0  0  0  0  0  0  0
   12.0736   -1.2874    0.0000 C   0  0  0  0  0  0  0  0  0  0  0  0
   12.0620   -2.2873    0.0000 C   0  0  0  0  0  0  0  0  0  0  0  0
    4.2690    0.8972    0.0000 H   0  0  0  0  0  0  0  0  0  0  0  0
    5.7456    1.6696    0.0000 H   0  0  0  0  0  0  0  0  0  0  0  0
    5.3471    2.3598    0.0000 H   0  0  0  0  0  0  0  0  0  0  0  0
    5.6025   -0.1977    0.0000 H   0  0  0  0  0  0  0  0  0  0  0  0
    6.3996   -0.1977    0.0000 H   0  0  0  0  0  0  0  0  0  0  0  0
    3.6584    2.3849    0.0000 H   0  0  0  0  0  0  0  0  0  0  0  0
    4.0569    1.6946    0.0000 H   0  0  0  0  0  0  0  0  0  0  0  0
    3.6490   -0.7228    0.0000 H   0  0  0  0  0  0  0  0  0  0  0  0
    4.2690   -1.3428    0.0000 H   0  0  0  0  0  0  0  0  0  0  0  0
    4.8890   -0.7228    0.0000 H   0  0  0  0  0  0  0  0  0  0  0  0
    7.7331   -0.3428    0.0000 H   0  0  0  0  0  0  0  0  0  0  0  0
    7.7331    2.8972    0.0000 H   0  0  0  0  0  0  0  0  0  0  0  0
    3.7130    4.3142    0.0000 H   0  0  0  0  0  0  0  0  0  0  0  0
    2.8660    4.0872    0.0000 H   0  0  0  0  0  0  0  0  0  0  0  0
    3.0930    3.2403    0.0000 H   0  0  0  0  0  0  0  0  0  0  0  0
    5.4450    3.2403    0.0000 H   0  0  0  0  0  0  0  0  0  0  0  0
    5.6720    4.0872    0.0000 H   0  0  0  0  0  0  0  0  0  0  0  0
    4.8250    4.3142    0.0000 H   0  0  0  0  0  0  0  0  0  0  0  0
    2.0000    0.5872    0.0000 H   0  0  0  0  0  0  0  0  0  0  0  0
    2.5369   -0.3428    0.0000 H   0  0  0  0  0  0  0  0  0  0  0  0
    8.9410   -1.0612    0.0000 H   0  0  0  0  0  0  0  0  0  0  0  0
   10.9349    2.1101    0.0000 H   0  0  0  0  0  0  0  0  0  0  0  0
    6.6210    3.2772    0.0000 H   0  0  0  0  0  0  0  0  0  0  0  0
    6.0010    3.8972    0.0000 H   0  0  0  0  0  0  0  0  0  0  0  0
    5.3810    3.2772    0.0000 H   0  0  0  0  0  0  0  0  0  0  0  0
   11.2206   -0.1575    0.0000 H   0  0  0  0  0  0  0  0  0  0  0  0
   12.6141   -0.9836    0.0000 H   0  0  0  0  0  0  0  0  0  0  0  0
   12.5954   -2.6035    0.0000 H   0  0  0  0  0  0  0  0  0  0  0  0
  1 31  1  0  0  0  0
  2 29  1  0  0  0  0
  3 18  1  0  0  0  0
  3 27  1  0  0  0  0
  4 19  2  0  0  0  0
 11  5  1  1  0  0  0
  5 12  1  0  0  0  0
  5 13  1  0  0  0  0
  6 14  1  0  0  0  0
  6 23  1  0  0  0  0
  6 24  1  0  0  0  0
  7 19  1  0  0  0  0
  7 52  1  0  0  0  0
  7 53  1  0  0  0  0
  8 21  1  0  0  0  0
  8 26  2  0  0  0  0
  9 25  1  0  0  0  0
  9 28  1  0  0  0  0
  9 54  1  0  0  0  0
 10 25  2  0  0  0  0
 10 26  1  0  0  0  0
 11 16  1  0  0  0  0
 11 19  1  0  0  0  0
 11 34  1  0  0  0  0
 12 14  1  0  0  0  0
 12 35  1  0  0  0  0
 12 36  1  0  0  0  0
 13 15  1  0  0  0  0
 13 37  1  0  0  0  0
 13 38  1  0  0  0  0
 14 39  1  0  0  0  0
 14 40  1  0  0  0  0
 15 17  2  0  0  0  0
 15 18  1  0  0  0  0
 16 41  1  0  0  0  0
 16 42  1  0  0  0  0
 16 43  1  0  0  0  0
 17 20  1  0  0  0  0
 17 44  1  0  0  0  0
 18 22  2  0  0  0  0
 20 21  2  0  0  0  0
 20 25  1  0  0  0  0
 21 22  1  0  0  0  0
 22 45  1  0  0  0  0
 23 46  1  0  0  0  0
 23 47  1  0  0  0  0
 23 48  1  0  0  0  0
 24 49  1  0  0  0  0
 24 50  1  0  0  0  0
 24 51  1  0  0  0  0
 26 55  1  0  0  0  0
 27 56  1  0  0  0  0
 27 57  1  0  0  0  0
 27 58  1  0  0  0  0
 28 29  2  0  0  0  0
 28 30  1  0  0  0  0
 29 31  1  0  0  0  0
 30 32  2  0  0  0  0
 30 59  1  0  0  0  0
 31 33  2  0  0  0  0
 32 33  1  0  0  0  0
 32 60  1  0  0  0  0
 33 61  1  0  0  0  0
M  END
> <PUBCHEM_COMPOUND_CID>
44410954

> <PUBCHEM_COMPOUND_CANONICALIZED>
1

> <PUBCHEM_CACTVS_COMPLEXITY>
632

> <PUBCHEM_CACTVS_HBOND_ACCEPTOR>
8

> <PUBCHEM_CACTVS_HBOND_DONOR>
2

> <PUBCHEM_CACTVS_ROTATABLE_BOND>
10

> <PUBCHEM_CACTVS_SUBSKEYS>
AAADceB7sQAEAAAAAAAAAAAAAAAAAAAAAAA8YIAAAAAAAACx9AAAHwIQAAAADC7Bni439vfIFACoAydzdACCiCkxJ6AJ2CG+bpiMbuLF+/uUNChu0BvI6CeQ0GMOKAACAgIKAABQAAQEBBQAAAAAAAAAAA==

> <PUBCHEM_IUPAC_OPENEYE_NAME>
(2S)-2-[[4-(3-chloro-2-fluoro-anilino)-7-methoxy-quinazolin-6-yl]methyl-[2-(dimethylamino)ethyl]amino]propanamide

> <PUBCHEM_IUPAC_CAS_NAME>
(2S)-2-[[4-(3-chloro-2-fluoroanilino)-7-methoxy-6-quinazolinyl]methyl-[2-(dimethylamino)ethyl]amino]propanamide

> <PUBCHEM_IUPAC_NAME_MARKUP>
(2<I>S</I>)-2-[[4-(3-chloro-2-fluoroanilino)-7-methoxyquinazolin-6-yl]methyl-[2-(dimethylamino)ethyl]amino]propanamide

> <PUBCHEM_IUPAC_NAME>
(2S)-2-[[4-(3-chloro-2-fluoroanilino)-7-methoxyquinazolin-6-yl]methyl-[2-(dimethylamino)ethyl]amino]propanamide

> <PUBCHEM_IUPAC_SYSTEMATIC_NAME>
(2S)-2-[[4-[(3-chloranyl-2-fluoranyl-phenyl)amino]-7-methoxy-quinazolin-6-yl]methyl-[2-(dimethylamino)ethyl]amino]propanamide

> <PUBCHEM_IUPAC_TRADITIONAL_NAME>
(2S)-2-[[4-(3-chloro-2-fluoro-anilino)-7-methoxy-quinazolin-6-yl]methyl-[2-(dimethylamino)ethyl]amino]propionamide

> <PUBCHEM_IUPAC_INCHI>
InChI=1S/C23H28ClFN6O2/c1-14(22(26)32)31(9-8-30(2)3)12-15-10-16-19(11-20(15)33-4)27-13-28-23(16)29-18-7-5-6-17(24)21(18)25/h5-7,10-11,13-14H,8-9,12H2,1-4H3,(H2,26,32)(H,27,28,29)/t14-/m0/s1

> <PUBCHEM_IUPAC_INCHIKEY>
AYNCWLOKRFSIND-AWEZNQCLSA-N

> <PUBCHEM_XLOGP3_AA>
3.3

> <PUBCHEM_EXACT_MASS>
474.1946300

> <PUBCHEM_MOLECULAR_FORMULA>
C23H28ClFN6O2

> <PUBCHEM_MOLECULAR_WEIGHT>
475.0

> <PUBCHEM_SMILES>
C[C@@H](C(=O)N)N(CCN(C)C)CC1=CC2=C(C=C1OC)N=CN=C2NC3=C(C(=CC=C3)Cl)F

> <PUBCHEM_OPENEYE_CAN_SMILES>
CC(C(=O)N)N(CCN(C)C)CC1=CC2=C(C=C1OC)N=CN=C2NC3=C(C(=CC=C3)Cl)F

> <PUBCHEM_OPENEYE_ISO_SMILES>
C[C@@H](C(=O)N)N(CCN(C)C)CC1=CC2=C(C=C1OC)N=CN=C2NC3=C(C(=CC=C3)Cl)F

> <PUBCHEM_CACTVS_TPSA>
96.6

> <PUBCHEM_MONOISOTOPIC_WEIGHT>
474.1946300

> <PUBCHEM_TOTAL_CHARGE>
0

> <PUBCHEM_HEAVY_ATOM_COUNT>
33

> <PUBCHEM_ATOM_DEF_STEREO_COUNT>
1

> <PUBCHEM_ATOM_UDEF_STEREO_COUNT>
0

> <PUBCHEM_BOND_DEF_STEREO_COUNT>
0

> <PUBCHEM_BOND_UDEF_STEREO_COUNT>
0

> <PUBCHEM_ISOTOPIC_ATOM_COUNT>
0

> <PUBCHEM_COMPONENT_COUNT>
1

> <PUBCHEM_CACTVS_TAUTO_COUNT>
-1

> <PUBCHEM_COORDINATE_TYPE>
1
5
255

> <PUBCHEM_BONDANNOTATIONS>
10  25  8
10  26  8
15  17  8
15  18  8
17  20  8
18  22  8
20  21  8
20  25  8
21  22  8
28  29  8
28  30  8
29  31  8
30  32  8
31  33  8
32  33  8
11  5  5
8  21  8
8  26  8

$$$$
