49830743
  -OEChem-03202503152D

 36 37  0     1  0  0  0  0  0999 V2000
    4.5981   -2.5000    0.0000 Cl  0  0  0  0  0  0  0  0  0  0  0  0
    8.0622   -0.5000    0.0000 O   0  0  0  0  0  0  0  0  0  0  0  0
   10.6603   -1.0000    0.0000 N   0  0  0  0  0  0  0  0  0  0  0  0
    6.3301   -2.5000    0.0000 N   0  0  0  0  0  0  0  0  0  0  0  0
    2.0000    2.0000    0.0000 N   0  0  0  0  0  0  0  0  0  0  0  0
    9.7942   -0.5000    0.0000 C   0  0  3  0  0  0  0  0  0  0  0  0
    8.9282   -1.0000    0.0000 C   0  0  0  0  0  0  0  0  0  0  0  0
    9.7942    0.5000    0.0000 C   0  0  0  0  0  0  0  0  0  0  0  0
    7.1962   -1.0000    0.0000 C   0  0  0  0  0  0  0  0  0  0  0  0
    5.4641   -1.0000    0.0000 C   0  0  0  0  0  0  0  0  0  0  0  0
    6.3301   -0.5000    0.0000 C   0  0  0  0  0  0  0  0  0  0  0  0
    7.1962   -2.0000    0.0000 C   0  0  0  0  0  0  0  0  0  0  0  0
    4.5981   -0.5000    0.0000 C   0  0  0  0  0  0  0  0  0  0  0  0
    5.4641   -2.0000    0.0000 C   0  0  0  0  0  0  0  0  0  0  0  0
    4.5981    0.5000    0.0000 C   0  0  0  0  0  0  0  0  0  0  0  0
    3.7320    1.0000    0.0000 C   0  0  0  0  0  0  0  0  0  0  0  0
    2.8660    0.5000    0.0000 C   0  0  0  0  0  0  0  0  0  0  0  0
    3.7320    2.0000    0.0000 C   0  0  0  0  0  0  0  0  0  0  0  0
    2.0000    1.0000    0.0000 C   0  0  0  0  0  0  0  0  0  0  0  0
    2.8660    2.5000    0.0000 C   0  0  0  0  0  0  0  0  0  0  0  0
    9.7942   -1.1200    0.0000 H   0  0  0  0  0  0  0  0  0  0  0  0
    8.5297   -1.4750    0.0000 H   0  0  0  0  0  0  0  0  0  0  0  0
    9.3267   -1.4750    0.0000 H   0  0  0  0  0  0  0  0  0  0  0  0
   10.4142    0.5000    0.0000 H   0  0  0  0  0  0  0  0  0  0  0  0
    9.7942    1.1200    0.0000 H   0  0  0  0  0  0  0  0  0  0  0  0
    9.1742    0.5000    0.0000 H   0  0  0  0  0  0  0  0  0  0  0  0
   11.1972   -0.6900    0.0000 H   0  0  0  0  0  0  0  0  0  0  0  0
   10.6603   -1.6200    0.0000 H   0  0  0  0  0  0  0  0  0  0  0  0
    6.3301    0.1200    0.0000 H   0  0  0  0  0  0  0  0  0  0  0  0
    7.7331   -2.3100    0.0000 H   0  0  0  0  0  0  0  0  0  0  0  0
    4.0611   -0.8100    0.0000 H   0  0  0  0  0  0  0  0  0  0  0  0
    5.1350    0.8100    0.0000 H   0  0  0  0  0  0  0  0  0  0  0  0
    2.8660   -0.1200    0.0000 H   0  0  0  0  0  0  0  0  0  0  0  0
    4.2690    2.3100    0.0000 H   0  0  0  0  0  0  0  0  0  0  0  0
    1.4631    0.6900    0.0000 H   0  0  0  0  0  0  0  0  0  0  0  0
    2.8660    3.1200    0.0000 H   0  0  0  0  0  0  0  0  0  0  0  0
  1 14  1  0  0  0  0
  2  7  1  0  0  0  0
  2  9  1  0  0  0  0
  3  6  1  0  0  0  0
  3 27  1  0  0  0  0
  3 28  1  0  0  0  0
  4 12  2  0  0  0  0
  4 14  1  0  0  0  0
  5 19  2  0  0  0  0
  5 20  1  0  0  0  0
  6  7  1  0  0  0  0
  6  8  1  0  0  0  0
  6 21  1  0  0  0  0
  7 22  1  0  0  0  0
  7 23  1  0  0  0  0
  8 24  1  0  0  0  0
  8 25  1  0  0  0  0
  8 26  1  0  0  0  0
  9 11  2  0  0  0  0
  9 12  1  0  0  0  0
 10 11  1  0  0  0  0
 10 13  1  0  0  0  0
 10 14  2  0  0  0  0
 11 29  1  0  0  0  0
 12 30  1  0  0  0  0
 13 15  2  3  0  0  0
 13 31  1  0  0  0  0
 15 16  1  0  0  0  0
 15 32  1  0  0  0  0
 16 17  2  0  0  0  0
 16 18  1  0  0  0  0
 17 19  1  0  0  0  0
 17 33  1  0  0  0  0
 18 20  2  0  0  0  0
 18 34  1  0  0  0  0
 19 35  1  0  0  0  0
 20 36  1  0  0  0  0
M  END
> <PUBCHEM_COMPOUND_CID>
49830743

> <PUBCHEM_COMPOUND_CANONICALIZED>
1

> <PUBCHEM_CACTVS_COMPLEXITY>
307

> <PUBCHEM_CACTVS_HBOND_ACCEPTOR>
4

> <PUBCHEM_CACTVS_HBOND_DONOR>
1

> <PUBCHEM_CACTVS_ROTATABLE_BOND>
5

> <PUBCHEM_CACTVS_SUBSKEYS>
AAADceBzIAAEAAAAAAAAAAAAAAAAAAAAAAAsWAAAAAAAAAAB4AAAHgIQAAAADC7hmiY+hpJIFACgAjBnRASCiCAxZiAI2KA/bpgOJuLFs5uHOCjk0BHY6AYwAAAOAAAAAAAAAAAAAAAAAAAAAAAAAAAAAA==

> <PUBCHEM_IUPAC_OPENEYE_NAME>
1-[[6-chloro-5-[2-(4-pyridyl)vinyl]-3-pyridyl]oxy]propan-2-amine

> <PUBCHEM_IUPAC_CAS_NAME>
1-[[6-chloro-5-(2-pyridin-4-ylethenyl)-3-pyridinyl]oxy]-2-propanamine

> <PUBCHEM_IUPAC_NAME_MARKUP>
1-[6-chloro-5-(2-pyridin-4-ylethenyl)pyridin-3-yl]oxypropan-2-amine

> <PUBCHEM_IUPAC_NAME>
1-[6-chloro-5-(2-pyridin-4-ylethenyl)pyridin-3-yl]oxypropan-2-amine

> <PUBCHEM_IUPAC_SYSTEMATIC_NAME>
1-[6-chloranyl-5-(2-pyridin-4-ylethenyl)pyridin-3-yl]oxypropan-2-amine

> <PUBCHEM_IUPAC_TRADITIONAL_NAME>
[2-[[6-chloro-5-[2-(4-pyridyl)vinyl]-3-pyridyl]oxy]-1-methyl-ethyl]amine

> <PUBCHEM_IUPAC_INCHI>
InChI=1S/C15H16ClN3O/c1-11(17)10-20-14-8-13(15(16)19-9-14)3-2-12-4-6-18-7-5-12/h2-9,11H,10,17H2,1H3

> <PUBCHEM_IUPAC_INCHIKEY>
OHPRWVPOPFGLJG-UHFFFAOYSA-N

> <PUBCHEM_XLOGP3_AA>
2.5

> <PUBCHEM_EXACT_MASS>
289.0981898

> <PUBCHEM_MOLECULAR_FORMULA>
C15H16ClN3O

> <PUBCHEM_MOLECULAR_WEIGHT>
289.76

> <PUBCHEM_SMILES>
CC(COC1=CC(=C(N=C1)Cl)C=CC2=CC=NC=C2)N

> <PUBCHEM_OPENEYE_CAN_SMILES>
CC(COC1=CC(=C(N=C1)Cl)C=CC2=CC=NC=C2)N

> <PUBCHEM_OPENEYE_ISO_SMILES>
CC(COC1=CC(=C(N=C1)Cl)C=CC2=CC=NC=C2)N

> <PUBCHEM_CACTVS_TPSA>
61

> <PUBCHEM_MONOISOTOPIC_WEIGHT>
289.0981898

> <PUBCHEM_TOTAL_CHARGE>
0

> <PUBCHEM_HEAVY_ATOM_COUNT>
20

> <PUBCHEM_ATOM_DEF_STEREO_COUNT>
0

> <PUBCHEM_ATOM_UDEF_STEREO_COUNT>
1

> <PUBCHEM_BOND_DEF_STEREO_COUNT>
0

> <PUBCHEM_BOND_UDEF_STEREO_COUNT>
1

> <PUBCHEM_ISOTOPIC_ATOM_COUNT>
0

> <PUBCHEM_COMPONENT_COUNT>
1

> <PUBCHEM_CACTVS_TAUTO_COUNT>
-1

> <PUBCHEM_COORDINATE_TYPE>
1
5
255

> <PUBCHEM_BONDANNOTATIONS>
10  11  8
10  14  8
13  15  1
16  17  8
16  18  8
17  19  8
18  20  8
6  3  3
4  12  8
4  14  8
5  19  8
5  20  8
9  11  8
9  12  8

$$$$
