9943194
  -OEChem-03202507062D

 33 35  0     0  0  0  0  0  0999 V2000
    7.1962   -0.9050    0.0000 N   0  0  0  0  0  0  0  0  0  0  0  0
    5.4641   -0.9050    0.0000 N   0  0  0  0  0  0  0  0  0  0  0  0
    6.3301    0.5950    0.0000 N   0  0  0  0  0  0  0  0  0  0  0  0
    8.9282    2.0950    0.0000 N   0  0  0  0  0  0  0  0  0  0  0  0
    2.0000   -0.9050    0.0000 N   0  0  0  0  0  0  0  0  0  0  0  0
    8.0622   -0.4050    0.0000 C   0  0  0  0  0  0  0  0  0  0  0  0
    4.5981   -0.4050    0.0000 C   0  0  0  0  0  0  0  0  0  0  0  0
    3.7320   -0.9050    0.0000 C   0  0  0  0  0  0  0  0  0  0  0  0
    6.3301   -0.4050    0.0000 C   0  0  0  0  0  0  0  0  0  0  0  0
    8.0622    0.5950    0.0000 C   0  0  0  0  0  0  0  0  0  0  0  0
    8.9282   -0.9050    0.0000 C   0  0  0  0  0  0  0  0  0  0  0  0
    8.9282    1.0950    0.0000 C   0  0  0  0  0  0  0  0  0  0  0  0
    4.5981    0.5950    0.0000 C   0  0  0  0  0  0  0  0  0  0  0  0
    9.7942   -0.4050    0.0000 C   0  0  0  0  0  0  0  0  0  0  0  0
    9.7942    0.5950    0.0000 C   0  0  0  0  0  0  0  0  0  0  0  0
    3.7320   -1.9050    0.0000 C   0  0  0  0  0  0  0  0  0  0  0  0
    5.4641    1.0950    0.0000 C   0  0  0  0  0  0  0  0  0  0  0  0
    2.8660   -0.4050    0.0000 C   0  0  0  0  0  0  0  0  0  0  0  0
    2.8660   -2.4050    0.0000 C   0  0  0  0  0  0  0  0  0  0  0  0
    2.0000   -1.9050    0.0000 C   0  0  0  0  0  0  0  0  0  0  0  0
    7.1962   -1.5250    0.0000 H   0  0  0  0  0  0  0  0  0  0  0  0
    7.5252    0.9050    0.0000 H   0  0  0  0  0  0  0  0  0  0  0  0
    8.9282   -1.5250    0.0000 H   0  0  0  0  0  0  0  0  0  0  0  0
    4.0611    0.9050    0.0000 H   0  0  0  0  0  0  0  0  0  0  0  0
   10.3312   -0.7150    0.0000 H   0  0  0  0  0  0  0  0  0  0  0  0
   10.3312    0.9050    0.0000 H   0  0  0  0  0  0  0  0  0  0  0  0
    4.2690   -2.2150    0.0000 H   0  0  0  0  0  0  0  0  0  0  0  0
    5.4641    1.7150    0.0000 H   0  0  0  0  0  0  0  0  0  0  0  0
    2.8660    0.2150    0.0000 H   0  0  0  0  0  0  0  0  0  0  0  0
    2.8660   -3.0250    0.0000 H   0  0  0  0  0  0  0  0  0  0  0  0
    9.4651    2.4050    0.0000 H   0  0  0  0  0  0  0  0  0  0  0  0
    8.3913    2.4050    0.0000 H   0  0  0  0  0  0  0  0  0  0  0  0
    1.4631   -2.2150    0.0000 H   0  0  0  0  0  0  0  0  0  0  0  0
  1  6  1  0  0  0  0
  1  9  1  0  0  0  0
  1 21  1  0  0  0  0
  2  7  2  0  0  0  0
  2  9  1  0  0  0  0
  3  9  2  0  0  0  0
  3 17  1  0  0  0  0
  4 12  1  0  0  0  0
  4 31  1  0  0  0  0
  4 32  1  0  0  0  0
  5 18  1  0  0  0  0
  5 20  2  0  0  0  0
  6 10  1  0  0  0  0
  6 11  2  0  0  0  0
  7  8  1  0  0  0  0
  7 13  1  0  0  0  0
  8 16  1  0  0  0  0
  8 18  2  0  0  0  0
 10 12  2  0  0  0  0
 10 22  1  0  0  0  0
 11 14  1  0  0  0  0
 11 23  1  0  0  0  0
 12 15  1  0  0  0  0
 13 17  2  0  0  0  0
 13 24  1  0  0  0  0
 14 15  2  0  0  0  0
 14 25  1  0  0  0  0
 15 26  1  0  0  0  0
 16 19  2  0  0  0  0
 16 27  1  0  0  0  0
 17 28  1  0  0  0  0
 18 29  1  0  0  0  0
 19 20  1  0  0  0  0
 19 30  1  0  0  0  0
 20 33  1  0  0  0  0
M  END
> <PUBCHEM_COMPOUND_CID>
9943194

> <PUBCHEM_COMPOUND_CANONICALIZED>
1

> <PUBCHEM_CACTVS_COMPLEXITY>
298

> <PUBCHEM_CACTVS_HBOND_ACCEPTOR>
5

> <PUBCHEM_CACTVS_HBOND_DONOR>
2

> <PUBCHEM_CACTVS_ROTATABLE_BOND>
3

> <PUBCHEM_CACTVS_SUBSKEYS>
AAADccBzgAAAAAAAAAAAAAAAAAAAAAAAAAA8WIAAAAAAAAAB8AAAHAAQAAAADAjBHgQ90JbIEACgAzRnZACCgCkxAqAJ2CA4ZJiIKOLA2dGEJAhokALIyCcQgAAOAAAAAAQAAAAAAAAACAAAAAAAAAAAAA==

> <PUBCHEM_IUPAC_OPENEYE_NAME>
N3-[4-(3-pyridyl)pyrimidin-2-yl]benzene-1,3-diamine

> <PUBCHEM_IUPAC_CAS_NAME>
N3-[4-(3-pyridinyl)-2-pyrimidinyl]benzene-1,3-diamine

> <PUBCHEM_IUPAC_NAME_MARKUP>
3-<I>N</I>-(4-pyridin-3-ylpyrimidin-2-yl)benzene-1,3-diamine

> <PUBCHEM_IUPAC_NAME>
3-N-(4-pyridin-3-ylpyrimidin-2-yl)benzene-1,3-diamine

> <PUBCHEM_IUPAC_SYSTEMATIC_NAME>
N3-(4-pyridin-3-ylpyrimidin-2-yl)benzene-1,3-diamine

> <PUBCHEM_IUPAC_TRADITIONAL_NAME>
(3-aminophenyl)-[4-(3-pyridyl)pyrimidin-2-yl]amine

> <PUBCHEM_IUPAC_INCHI>
InChI=1S/C15H13N5/c16-12-4-1-5-13(9-12)19-15-18-8-6-14(20-15)11-3-2-7-17-10-11/h1-10H,16H2,(H,18,19,20)

> <PUBCHEM_IUPAC_INCHIKEY>
ZQTRXPRIWRFHRY-UHFFFAOYSA-N

> <PUBCHEM_XLOGP3_AA>
2

> <PUBCHEM_EXACT_MASS>
263.11709544

> <PUBCHEM_MOLECULAR_FORMULA>
C15H13N5

> <PUBCHEM_MOLECULAR_WEIGHT>
263.30

> <PUBCHEM_SMILES>
C1=CC(=CC(=C1)NC2=NC=CC(=N2)C3=CN=CC=C3)N

> <PUBCHEM_OPENEYE_CAN_SMILES>
C1=CC(=CC(=C1)NC2=NC=CC(=N2)C3=CN=CC=C3)N

> <PUBCHEM_OPENEYE_ISO_SMILES>
C1=CC(=CC(=C1)NC2=NC=CC(=N2)C3=CN=CC=C3)N

> <PUBCHEM_CACTVS_TPSA>
76.7

> <PUBCHEM_MONOISOTOPIC_WEIGHT>
263.11709544

> <PUBCHEM_TOTAL_CHARGE>
0

> <PUBCHEM_HEAVY_ATOM_COUNT>
20

> <PUBCHEM_ATOM_DEF_STEREO_COUNT>
0

> <PUBCHEM_ATOM_UDEF_STEREO_COUNT>
0

> <PUBCHEM_BOND_DEF_STEREO_COUNT>
0

> <PUBCHEM_BOND_UDEF_STEREO_COUNT>
0

> <PUBCHEM_ISOTOPIC_ATOM_COUNT>
0

> <PUBCHEM_COMPONENT_COUNT>
1

> <PUBCHEM_CACTVS_TAUTO_COUNT>
-1

> <PUBCHEM_COORDINATE_TYPE>
1
5
255

> <PUBCHEM_BONDANNOTATIONS>
10  12  8
11  14  8
12  15  8
13  17  8
14  15  8
16  19  8
19  20  8
2  7  8
2  9  8
3  17  8
3  9  8
5  18  8
5  20  8
6  10  8
6  11  8
7  13  8
8  16  8
8  18  8

$$$$
