24905222
  -OEChem-03192523562D

 45 49  0     0  0  0  0  0  0999 V2000
    4.6783   -1.8331    0.0000 N   0  0  0  0  0  0  0  0  0  0  0  0
    5.2619   -1.0284    0.0000 N   0  0  0  0  0  0  0  0  0  0  0  0
    2.8660   -2.0284    0.0000 N   0  0  0  0  0  0  0  0  0  0  0  0
    6.1110    3.4867    0.0000 N   0  0  0  0  0  0  0  0  0  0  0  0
    2.0000   -0.5283    0.0000 N   0  0  0  0  0  0  0  0  0  0  0  0
    2.8660    0.9717    0.0000 N   0  0  0  0  0  0  0  0  0  0  0  0
    4.9889   -2.7836    0.0000 C   0  0  0  0  0  0  0  0  0  0  0  0
    4.4026   -3.5936    0.0000 C   0  0  0  0  0  0  0  0  0  0  0  0
    5.9405   -3.0910    0.0000 C   0  0  0  0  0  0  0  0  0  0  0  0
    4.9917   -4.4016    0.0000 C   0  0  0  0  0  0  0  0  0  0  0  0
    5.9422   -4.0910    0.0000 C   0  0  0  0  0  0  0  0  0  0  0  0
    3.7320   -1.5284    0.0000 C   0  0  0  0  0  0  0  0  0  0  0  0
    3.7320   -0.5283    0.0000 C   0  0  0  0  0  0  0  0  0  0  0  0
    4.6783   -0.2236    0.0000 C   0  0  0  0  0  0  0  0  0  0  0  0
    4.9889    0.7269    0.0000 C   0  0  0  0  0  0  0  0  0  0  0  0
    2.8660   -0.0283    0.0000 C   0  0  0  0  0  0  0  0  0  0  0  0
    5.9674    0.9331    0.0000 C   0  0  0  0  0  0  0  0  0  0  0  0
    6.2781    1.8836    0.0000 C   0  0  0  0  0  0  0  0  0  0  0  0
    4.3211    1.4712    0.0000 C   0  0  0  0  0  0  0  0  0  0  0  0
    5.6103    2.6279    0.0000 C   0  0  0  0  0  0  0  0  0  0  0  0
    4.6318    2.4217    0.0000 C   0  0  0  0  0  0  0  0  0  0  0  0
    2.0000   -1.5284    0.0000 C   0  0  0  0  0  0  0  0  0  0  0  0
    7.1859    2.2888    0.0000 C   0  0  0  0  0  0  0  0  0  0  0  0
    7.0828    3.2775    0.0000 C   0  0  0  0  0  0  0  0  0  0  0  0
    5.7074    4.4016    0.0000 C   0  0  0  0  0  0  0  0  0  0  0  0
    5.4266   -2.3444    0.0000 H   0  0  0  0  0  0  0  0  0  0  0  0
    3.9411   -3.1796    0.0000 H   0  0  0  0  0  0  0  0  0  0  0  0
    3.9425   -4.0093    0.0000 H   0  0  0  0  0  0  0  0  0  0  0  0
    6.5572   -3.1547    0.0000 H   0  0  0  0  0  0  0  0  0  0  0  0
    6.0684   -2.4843    0.0000 H   0  0  0  0  0  0  0  0  0  0  0  0
    4.4553   -4.7126    0.0000 H   0  0  0  0  0  0  0  0  0  0  0  0
    5.2449   -4.9676    0.0000 H   0  0  0  0  0  0  0  0  0  0  0  0
    6.0722   -4.6972    0.0000 H   0  0  0  0  0  0  0  0  0  0  0  0
    6.5587   -4.0251    0.0000 H   0  0  0  0  0  0  0  0  0  0  0  0
    6.3815    0.4717    0.0000 H   0  0  0  0  0  0  0  0  0  0  0  0
    3.7144    1.3434    0.0000 H   0  0  0  0  0  0  0  0  0  0  0  0
    4.2177    2.8832    0.0000 H   0  0  0  0  0  0  0  0  0  0  0  0
    1.4631   -1.8384    0.0000 H   0  0  0  0  0  0  0  0  0  0  0  0
    7.7228    1.9788    0.0000 H   0  0  0  0  0  0  0  0  0  0  0  0
    7.5443    3.6915    0.0000 H   0  0  0  0  0  0  0  0  0  0  0  0
    2.3291    1.2816    0.0000 H   0  0  0  0  0  0  0  0  0  0  0  0
    3.4030    1.2816    0.0000 H   0  0  0  0  0  0  0  0  0  0  0  0
    6.2747    4.6518    0.0000 H   0  0  0  0  0  0  0  0  0  0  0  0
    5.4572    4.9689    0.0000 H   0  0  0  0  0  0  0  0  0  0  0  0
    5.1402    4.1514    0.0000 H   0  0  0  0  0  0  0  0  0  0  0  0
  1  2  1  0  0  0  0
  1  7  1  0  0  0  0
  1 12  1  0  0  0  0
  2 14  2  0  0  0  0
  3 12  2  0  0  0  0
  3 22  1  0  0  0  0
  4 20  1  0  0  0  0
  4 24  1  0  0  0  0
  4 25  1  0  0  0  0
  5 16  1  0  0  0  0
  5 22  2  0  0  0  0
  6 16  1  0  0  0  0
  6 41  1  0  0  0  0
  6 42  1  0  0  0  0
  7  8  1  0  0  0  0
  7  9  1  0  0  0  0
  7 26  1  0  0  0  0
  8 10  1  0  0  0  0
  8 27  1  0  0  0  0
  8 28  1  0  0  0  0
  9 11  1  0  0  0  0
  9 29  1  0  0  0  0
  9 30  1  0  0  0  0
 10 11  1  0  0  0  0
 10 31  1  0  0  0  0
 10 32  1  0  0  0  0
 11 33  1  0  0  0  0
 11 34  1  0  0  0  0
 12 13  1  0  0  0  0
 13 14  1  0  0  0  0
 13 16  2  0  0  0  0
 14 15  1  0  0  0  0
 15 17  2  0  0  0  0
 15 19  1  0  0  0  0
 17 18  1  0  0  0  0
 17 35  1  0  0  0  0
 18 20  2  0  0  0  0
 18 23  1  0  0  0  0
 19 21  2  0  0  0  0
 19 36  1  0  0  0  0
 20 21  1  0  0  0  0
 21 37  1  0  0  0  0
 22 38  1  0  0  0  0
 23 24  2  0  0  0  0
 23 39  1  0  0  0  0
 24 40  1  0  0  0  0
 25 43  1  0  0  0  0
 25 44  1  0  0  0  0
 25 45  1  0  0  0  0
M  END
> <PUBCHEM_COMPOUND_CID>
24905222

> <PUBCHEM_COMPOUND_CANONICALIZED>
1

> <PUBCHEM_CACTVS_COMPLEXITY>
481

> <PUBCHEM_CACTVS_HBOND_ACCEPTOR>
4

> <PUBCHEM_CACTVS_HBOND_DONOR>
1

> <PUBCHEM_CACTVS_ROTATABLE_BOND>
2

> <PUBCHEM_CACTVS_SUBSKEYS>
AAADceB7gAAAAAAAAAAAAAAAAAAAAeLEAAA8QAAAAAAAAFgB/gAAHAAYAAAADCjBHwQ/8P9MEACiAzZnZACShCsxgqAd2CA4ZJiIKOLA2dGEpAhoiALIyCcQgMAOCAACAAACAAAQAAQAAAQAAAAAAAAAAA==

> <PUBCHEM_IUPAC_OPENEYE_NAME>
1-cyclopentyl-3-(1-methylindol-5-yl)pyrazolo[3,4-d]pyrimidin-4-amine

> <PUBCHEM_IUPAC_CAS_NAME>
1-cyclopentyl-3-(1-methyl-5-indolyl)-4-pyrazolo[3,4-d]pyrimidinamine

> <PUBCHEM_IUPAC_NAME_MARKUP>
1-cyclopentyl-3-(1-methylindol-5-yl)pyrazolo[3,4-d]pyrimidin-4-amine

> <PUBCHEM_IUPAC_NAME>
1-cyclopentyl-3-(1-methylindol-5-yl)pyrazolo[3,4-d]pyrimidin-4-amine

> <PUBCHEM_IUPAC_SYSTEMATIC_NAME>
1-cyclopentyl-3-(1-methylindol-5-yl)pyrazolo[3,4-d]pyrimidin-4-amine

> <PUBCHEM_IUPAC_TRADITIONAL_NAME>
[1-cyclopentyl-3-(1-methylindol-5-yl)pyrazolo[3,4-d]pyrimidin-4-yl]amine

> <PUBCHEM_IUPAC_INCHI>
InChI=1S/C19H20N6/c1-24-9-8-12-10-13(6-7-15(12)24)17-16-18(20)21-11-22-19(16)25(23-17)14-4-2-3-5-14/h6-11,14H,2-5H2,1H3,(H2,20,21,22)

> <PUBCHEM_IUPAC_INCHIKEY>
LQIVXZFCXIBJSU-UHFFFAOYSA-N

> <PUBCHEM_XLOGP3_AA>
2.7

> <PUBCHEM_EXACT_MASS>
332.17494466

> <PUBCHEM_MOLECULAR_FORMULA>
C19H20N6

> <PUBCHEM_MOLECULAR_WEIGHT>
332.4

> <PUBCHEM_SMILES>
CN1C=CC2=C1C=CC(=C2)C3=NN(C4=NC=NC(=C34)N)C5CCCC5

> <PUBCHEM_OPENEYE_CAN_SMILES>
CN1C=CC2=C1C=CC(=C2)C3=NN(C4=NC=NC(=C34)N)C5CCCC5

> <PUBCHEM_OPENEYE_ISO_SMILES>
CN1C=CC2=C1C=CC(=C2)C3=NN(C4=NC=NC(=C34)N)C5CCCC5

> <PUBCHEM_CACTVS_TPSA>
74.6

> <PUBCHEM_MONOISOTOPIC_WEIGHT>
332.17494466

> <PUBCHEM_TOTAL_CHARGE>
0

> <PUBCHEM_HEAVY_ATOM_COUNT>
25

> <PUBCHEM_ATOM_DEF_STEREO_COUNT>
0

> <PUBCHEM_ATOM_UDEF_STEREO_COUNT>
0

> <PUBCHEM_BOND_DEF_STEREO_COUNT>
0

> <PUBCHEM_BOND_UDEF_STEREO_COUNT>
0

> <PUBCHEM_ISOTOPIC_ATOM_COUNT>
0

> <PUBCHEM_COMPONENT_COUNT>
1

> <PUBCHEM_CACTVS_TAUTO_COUNT>
-1

> <PUBCHEM_COORDINATE_TYPE>
1
5
255

> <PUBCHEM_BONDANNOTATIONS>
1  12  8
1  2  8
12  13  8
13  14  8
13  16  8
15  17  8
15  19  8
17  18  8
18  20  8
18  23  8
19  21  8
2  14  8
20  21  8
23  24  8
3  12  8
3  22  8
4  20  8
4  24  8
5  16  8
5  22  8

$$$$
