49830401
  -OEChem-03202500582D

 74 79  0     0  0  0  0  0  0999 V2000
   11.9851   -2.6422    0.0000 S   0  0  0  0  0  0  0  0  0  0  0  0
    8.8517    2.7758    0.0000 O   0  0  0  0  0  0  0  0  0  0  0  0
    5.0000   -2.7035    0.0000 O   0  0  0  0  0  0  0  0  0  0  0  0
   11.0388   -1.3375    0.0000 N   0  0  0  0  0  0  0  0  0  0  0  0
   10.0878   -2.6465    0.0000 N   0  0  0  0  0  0  0  0  0  0  0  0
    4.6301    4.5584    0.0000 N   0  0  0  0  0  0  0  0  0  0  0  0
    8.8006    0.1305    0.0000 N   0  0  0  0  0  0  0  0  0  0  0  0
    7.5135    1.2895    0.0000 N   0  0  0  0  0  0  0  0  0  0  0  0
    6.5000   -3.5696    0.0000 N   0  0  0  0  0  0  0  0  0  0  0  0
    9.1607    1.8247    0.0000 N   0  0  0  0  0  0  0  0  0  0  0  0
   10.0878   -1.0285    0.0000 C   0  0  0  0  0  0  0  0  0  0  0  0
    9.5000   -1.8375    0.0000 C   0  0  0  0  0  0  0  0  0  0  0  0
    8.5000   -1.8375    0.0000 C   0  0  0  0  0  0  0  0  0  0  0  0
   11.0388   -2.3375    0.0000 C   0  0  0  0  0  0  0  0  0  0  0  0
    9.7788   -0.0774    0.0000 C   0  0  0  0  0  0  0  0  0  0  0  0
   11.9851   -1.0328    0.0000 C   0  0  0  0  0  0  0  0  0  0  0  0
    8.0000   -2.7035    0.0000 C   0  0  0  0  0  0  0  0  0  0  0  0
    5.9173    3.3995    0.0000 C   0  0  0  0  0  0  0  0  0  0  0  0
    4.9391    3.6074    0.0000 C   0  0  0  0  0  0  0  0  0  0  0  0
    8.0000   -0.9715    0.0000 C   0  0  0  0  0  0  0  0  0  0  0  0
    7.2044    2.2405    0.0000 C   0  0  0  0  0  0  0  0  0  0  0  0
    7.0000   -2.7035    0.0000 C   0  0  0  0  0  0  0  0  0  0  0  0
    6.2263    2.4484    0.0000 C   0  0  0  0  0  0  0  0  0  0  0  0
   12.5687   -1.8375    0.0000 C   0  0  0  0  0  0  0  0  0  0  0  0
   10.4479    0.6657    0.0000 C   0  0  0  0  0  0  0  0  0  0  0  0
    8.4916    1.0816    0.0000 C   0  0  0  0  0  0  0  0  0  0  0  0
    7.8736    2.9837    0.0000 C   0  0  0  0  0  0  0  0  0  0  0  0
    6.5864    4.1426    0.0000 C   0  0  0  0  0  0  0  0  0  0  0  0
    7.0000   -0.9715    0.0000 C   0  0  0  0  0  0  0  0  0  0  0  0
    6.5000   -1.8375    0.0000 C   0  0  0  0  0  0  0  0  0  0  0  0
    7.5646    3.9347    0.0000 C   0  0  0  0  0  0  0  0  0  0  0  0
   10.1389    1.6168    0.0000 C   0  0  0  0  0  0  0  0  0  0  0  0
    3.6520    4.7664    0.0000 C   0  0  0  0  0  0  0  0  0  0  0  0
    5.2992    5.3016    0.0000 C   0  0  0  0  0  0  0  0  0  0  0  0
    5.5000   -3.5696    0.0000 C   0  0  0  0  0  0  0  0  0  0  0  0
    5.0000   -4.4356    0.0000 C   0  0  0  0  0  0  0  0  0  0  0  0
    4.0000   -4.4356    0.0000 C   0  0  0  0  0  0  0  0  0  0  0  0
    3.5000   -5.3016    0.0000 C   0  0  0  0  0  0  0  0  0  0  0  0
    3.5000   -3.5696    0.0000 C   0  0  0  0  0  0  0  0  0  0  0  0
    9.5208    3.5189    0.0000 C   0  0  0  0  0  0  0  0  0  0  0  0
    2.5000   -5.3016    0.0000 C   0  0  0  0  0  0  0  0  0  0  0  0
    2.5000   -3.5696    0.0000 C   0  0  0  0  0  0  0  0  0  0  0  0
    2.0000   -4.4356    0.0000 C   0  0  0  0  0  0  0  0  0  0  0  0
   12.1777   -0.4434    0.0000 H   0  0  0  0  0  0  0  0  0  0  0  0
    8.3100   -3.2405    0.0000 H   0  0  0  0  0  0  0  0  0  0  0  0
    4.3252    3.5211    0.0000 H   0  0  0  0  0  0  0  0  0  0  0  0
    4.9175    2.9878    0.0000 H   0  0  0  0  0  0  0  0  0  0  0  0
    8.3100   -0.4345    0.0000 H   0  0  0  0  0  0  0  0  0  0  0  0
    5.8114    1.9877    0.0000 H   0  0  0  0  0  0  0  0  0  0  0  0
   13.1887   -1.8375    0.0000 H   0  0  0  0  0  0  0  0  0  0  0  0
   11.0544    0.5368    0.0000 H   0  0  0  0  0  0  0  0  0  0  0  0
    7.0986    0.8287    0.0000 H   0  0  0  0  0  0  0  0  0  0  0  0
    6.3948    4.7323    0.0000 H   0  0  0  0  0  0  0  0  0  0  0  0
    6.6900   -0.4345    0.0000 H   0  0  0  0  0  0  0  0  0  0  0  0
    5.8800   -1.8375    0.0000 H   0  0  0  0  0  0  0  0  0  0  0  0
    7.9794    4.3955    0.0000 H   0  0  0  0  0  0  0  0  0  0  0  0
    6.8100   -4.1065    0.0000 H   0  0  0  0  0  0  0  0  0  0  0  0
   10.5537    2.0775    0.0000 H   0  0  0  0  0  0  0  0  0  0  0  0
    3.7809    5.3728    0.0000 H   0  0  0  0  0  0  0  0  0  0  0  0
    3.0455    4.8953    0.0000 H   0  0  0  0  0  0  0  0  0  0  0  0
    3.5231    4.1599    0.0000 H   0  0  0  0  0  0  0  0  0  0  0  0
    5.7600    4.8867    0.0000 H   0  0  0  0  0  0  0  0  0  0  0  0
    5.7141    5.7624    0.0000 H   0  0  0  0  0  0  0  0  0  0  0  0
    4.8385    5.7165    0.0000 H   0  0  0  0  0  0  0  0  0  0  0  0
    4.8923   -5.0462    0.0000 H   0  0  0  0  0  0  0  0  0  0  0  0
    5.5826   -4.6476    0.0000 H   0  0  0  0  0  0  0  0  0  0  0  0
    3.8100   -5.8385    0.0000 H   0  0  0  0  0  0  0  0  0  0  0  0
    3.8100   -3.0326    0.0000 H   0  0  0  0  0  0  0  0  0  0  0  0
    9.9816    3.1040    0.0000 H   0  0  0  0  0  0  0  0  0  0  0  0
    9.9357    3.9796    0.0000 H   0  0  0  0  0  0  0  0  0  0  0  0
    9.0601    3.9338    0.0000 H   0  0  0  0  0  0  0  0  0  0  0  0
    2.1900   -5.8385    0.0000 H   0  0  0  0  0  0  0  0  0  0  0  0
    2.1900   -3.0326    0.0000 H   0  0  0  0  0  0  0  0  0  0  0  0
    1.3800   -4.4356    0.0000 H   0  0  0  0  0  0  0  0  0  0  0  0
  1 14  1  0  0  0  0
  1 24  1  0  0  0  0
  2 27  1  0  0  0  0
  2 40  1  0  0  0  0
  3 35  2  0  0  0  0
  4 11  1  0  0  0  0
  4 14  1  0  0  0  0
  4 16  1  0  0  0  0
  5 12  1  0  0  0  0
  5 14  2  0  0  0  0
  6 19  1  0  0  0  0
  6 33  1  0  0  0  0
  6 34  1  0  0  0  0
  7 15  2  0  0  0  0
  7 26  1  0  0  0  0
  8 21  1  0  0  0  0
  8 26  1  0  0  0  0
  8 52  1  0  0  0  0
  9 22  1  0  0  0  0
  9 35  1  0  0  0  0
  9 57  1  0  0  0  0
 10 26  2  0  0  0  0
 10 32  1  0  0  0  0
 11 12  2  0  0  0  0
 11 15  1  0  0  0  0
 12 13  1  0  0  0  0
 13 17  2  0  0  0  0
 13 20  1  0  0  0  0
 15 25  1  0  0  0  0
 16 24  2  0  0  0  0
 16 44  1  0  0  0  0
 17 22  1  0  0  0  0
 17 45  1  0  0  0  0
 18 19  1  0  0  0  0
 18 23  2  0  0  0  0
 18 28  1  0  0  0  0
 19 46  1  0  0  0  0
 19 47  1  0  0  0  0
 20 29  2  0  0  0  0
 20 48  1  0  0  0  0
 21 23  1  0  0  0  0
 21 27  2  0  0  0  0
 22 30  2  0  0  0  0
 23 49  1  0  0  0  0
 24 50  1  0  0  0  0
 25 32  2  0  0  0  0
 25 51  1  0  0  0  0
 27 31  1  0  0  0  0
 28 31  2  0  0  0  0
 28 53  1  0  0  0  0
 29 30  1  0  0  0  0
 29 54  1  0  0  0  0
 30 55  1  0  0  0  0
 31 56  1  0  0  0  0
 32 58  1  0  0  0  0
 33 59  1  0  0  0  0
 33 60  1  0  0  0  0
 33 61  1  0  0  0  0
 34 62  1  0  0  0  0
 34 63  1  0  0  0  0
 34 64  1  0  0  0  0
 35 36  1  0  0  0  0
 36 37  1  0  0  0  0
 36 65  1  0  0  0  0
 36 66  1  0  0  0  0
 37 38  2  0  0  0  0
 37 39  1  0  0  0  0
 38 41  1  0  0  0  0
 38 67  1  0  0  0  0
 39 42  2  0  0  0  0
 39 68  1  0  0  0  0
 40 69  1  0  0  0  0
 40 70  1  0  0  0  0
 40 71  1  0  0  0  0
 41 43  2  0  0  0  0
 41 72  1  0  0  0  0
 42 43  1  0  0  0  0
 42 73  1  0  0  0  0
 43 74  1  0  0  0  0
M  END
> <PUBCHEM_COMPOUND_CID>
49830401

> <PUBCHEM_COMPOUND_CANONICALIZED>
1

> <PUBCHEM_CACTVS_COMPLEXITY>
891

> <PUBCHEM_CACTVS_HBOND_ACCEPTOR>
8

> <PUBCHEM_CACTVS_HBOND_DONOR>
2

> <PUBCHEM_CACTVS_ROTATABLE_BOND>
10

> <PUBCHEM_CACTVS_SUBSKEYS>
AAADceB/sABAAAAAAAAAAAAAAAAAAWLAAAA8YMEAAAAWAAAB/AAAHgQQAAAADAzF3ga/15fMHAisAzV3dACC+K1xOrhJ2C0/fJiObvLE/duVNChs1BPY6CeY2MKOIAAAQAAAEABAAACAAAAgAAAAAAAAAA==

> <PUBCHEM_IUPAC_OPENEYE_NAME>
N-[3-[5-[2-[5-[(dimethylamino)methyl]-2-methoxy-anilino]pyrimidin-4-yl]imidazo[2,1-b]thiazol-6-yl]phenyl]-2-phenyl-acetamide

> <PUBCHEM_IUPAC_CAS_NAME>
N-[3-[5-[2-[5-[(dimethylamino)methyl]-2-methoxyanilino]-4-pyrimidinyl]-6-imidazo[2,1-b]thiazolyl]phenyl]-2-phenylacetamide

> <PUBCHEM_IUPAC_NAME_MARKUP>
<I>N</I>-[3-[5-[2-[5-[(dimethylamino)methyl]-2-methoxyanilino]pyrimidin-4-yl]imidazo[2,1-b][1,3]thiazol-6-yl]phenyl]-2-phenylacetamide

> <PUBCHEM_IUPAC_NAME>
N-[3-[5-[2-[5-[(dimethylamino)methyl]-2-methoxyanilino]pyrimidin-4-yl]imidazo[2,1-b][1,3]thiazol-6-yl]phenyl]-2-phenylacetamide

> <PUBCHEM_IUPAC_SYSTEMATIC_NAME>
N-[3-[5-[2-[[5-[(dimethylamino)methyl]-2-methoxy-phenyl]amino]pyrimidin-4-yl]imidazo[2,1-b][1,3]thiazol-6-yl]phenyl]-2-phenyl-ethanamide

> <PUBCHEM_IUPAC_TRADITIONAL_NAME>
N-[3-[5-[2-[5-[(dimethylamino)methyl]-2-methoxy-anilino]pyrimidin-4-yl]imidazo[2,1-b]thiazol-6-yl]phenyl]-2-phenyl-acetamide

> <PUBCHEM_IUPAC_INCHI>
InChI=1S/C33H31N7O2S/c1-39(2)21-23-12-13-28(42-3)27(18-23)37-32-34-15-14-26(36-32)31-30(38-33-40(31)16-17-43-33)24-10-7-11-25(20-24)35-29(41)19-22-8-5-4-6-9-22/h4-18,20H,19,21H2,1-3H3,(H,35,41)(H,34,36,37)

> <PUBCHEM_IUPAC_INCHIKEY>
ILUGAYBMBIJXHC-UHFFFAOYSA-N

> <PUBCHEM_XLOGP3_AA>
6

> <PUBCHEM_EXACT_MASS>
589.22599443

> <PUBCHEM_MOLECULAR_FORMULA>
C33H31N7O2S

> <PUBCHEM_MOLECULAR_WEIGHT>
589.7

> <PUBCHEM_SMILES>
CN(C)CC1=CC(=C(C=C1)OC)NC2=NC=CC(=N2)C3=C(N=C4N3C=CS4)C5=CC(=CC=C5)NC(=O)CC6=CC=CC=C6

> <PUBCHEM_OPENEYE_CAN_SMILES>
CN(C)CC1=CC(=C(C=C1)OC)NC2=NC=CC(=N2)C3=C(N=C4N3C=CS4)C5=CC(=CC=C5)NC(=O)CC6=CC=CC=C6

> <PUBCHEM_OPENEYE_ISO_SMILES>
CN(C)CC1=CC(=C(C=C1)OC)NC2=NC=CC(=N2)C3=C(N=C4N3C=CS4)C5=CC(=CC=C5)NC(=O)CC6=CC=CC=C6

> <PUBCHEM_CACTVS_TPSA>
125

> <PUBCHEM_MONOISOTOPIC_WEIGHT>
589.22599443

> <PUBCHEM_TOTAL_CHARGE>
0

> <PUBCHEM_HEAVY_ATOM_COUNT>
43

> <PUBCHEM_ATOM_DEF_STEREO_COUNT>
0

> <PUBCHEM_ATOM_UDEF_STEREO_COUNT>
0

> <PUBCHEM_BOND_DEF_STEREO_COUNT>
0

> <PUBCHEM_BOND_UDEF_STEREO_COUNT>
0

> <PUBCHEM_ISOTOPIC_ATOM_COUNT>
0

> <PUBCHEM_COMPONENT_COUNT>
1

> <PUBCHEM_CACTVS_TAUTO_COUNT>
-1

> <PUBCHEM_COORDINATE_TYPE>
1
5
255

> <PUBCHEM_BONDANNOTATIONS>
1  14  8
1  24  8
10  26  8
10  32  8
11  12  8
13  17  8
13  20  8
15  25  8
16  24  8
17  22  8
18  23  8
18  28  8
20  29  8
21  23  8
21  27  8
22  30  8
25  32  8
27  31  8
28  31  8
29  30  8
37  38  8
37  39  8
38  41  8
39  42  8
4  11  8
4  14  8
4  16  8
41  43  8
42  43  8
5  12  8
5  14  8
7  15  8
7  26  8

$$$$
