16220223
  -OEChem-03202506032D

 62 66  0     0  0  0  0  0  0999 V2000
   12.9689   -1.5131    0.0000 S   0  0  0  0  0  0  0  0  0  0  0  0
    9.8753    0.5288    0.0000 O   0  0  0  0  0  0  0  0  0  0  0  0
   15.4234    1.7562    0.0000 O   0  0  0  0  0  0  0  0  0  0  0  0
   17.5961    3.2660    0.0000 O   0  0  0  0  0  0  0  0  0  0  0  0
    4.9368    0.8373    0.0000 N   0  0  0  0  0  0  0  0  0  0  0  0
    2.9789    0.4291    0.0000 N   0  0  0  0  0  0  0  0  0  0  0  0
    9.0971   -2.7637    0.0000 N   0  0  0  0  0  0  0  0  0  0  0  0
   10.0912   -2.7629    0.0000 N   0  0  0  0  0  0  0  0  0  0  0  0
    4.2706    1.5831    0.0000 C   0  0  0  0  0  0  0  0  0  0  0  0
    4.6241   -0.1125    0.0000 C   0  0  0  0  0  0  0  0  0  0  0  0
    3.2916    1.3789    0.0000 C   0  0  0  0  0  0  0  0  0  0  0  0
    3.6452   -0.3166    0.0000 C   0  0  0  0  0  0  0  0  0  0  0  0
    5.9158    1.0415    0.0000 C   0  0  0  0  0  0  0  0  0  0  0  0
    6.5820    0.2958    0.0000 C   0  0  0  0  0  0  0  0  0  0  0  0
    8.2875   -0.2803    0.0000 C   0  0  0  0  0  0  0  0  0  0  0  0
    7.9785   -1.2313    0.0000 C   0  0  0  0  0  0  0  0  0  0  0  0
    2.0000    0.2249    0.0000 C   0  0  0  0  0  0  0  0  0  0  0  0
    7.6025    0.5045    0.0000 C   0  0  0  0  0  0  0  0  0  0  0  0
    8.7875   -1.8191    0.0000 C   0  0  0  0  0  0  0  0  0  0  0  0
    9.5965   -1.2313    0.0000 C   0  0  0  0  0  0  0  0  0  0  0  0
    6.2602   -0.6949    0.0000 C   0  0  0  0  0  0  0  0  0  0  0  0
    9.2875   -0.2803    0.0000 C   0  0  0  0  0  0  0  0  0  0  0  0
    6.9631   -1.4636    0.0000 C   0  0  0  0  0  0  0  0  0  0  0  0
   10.3992   -1.8177    0.0000 C   0  0  0  0  0  0  0  0  0  0  0  0
   11.3508   -1.5103    0.0000 C   0  0  0  0  0  0  0  0  0  0  0  0
   11.6615   -0.5598    0.0000 C   0  0  0  0  0  0  0  0  0  0  0  0
   12.1588   -2.0995    0.0000 C   0  0  0  0  0  0  0  0  0  0  0  0
   12.6615   -0.5615    0.0000 C   0  0  0  0  0  0  0  0  0  0  0  0
   13.2507    0.2465    0.0000 C   0  0  0  0  0  0  0  0  0  0  0  0
   13.8398    1.0545    0.0000 C   0  0  0  0  0  0  0  0  0  0  0  0
   14.4290    1.8624    0.0000 C   0  0  0  0  0  0  0  0  0  0  0  0
   16.0126    2.5642    0.0000 C   0  0  0  0  0  0  0  0  0  0  0  0
   17.0069    2.4580    0.0000 C   0  0  0  0  0  0  0  0  0  0  0  0
   18.5904    3.1597    0.0000 C   0  0  0  0  0  0  0  0  0  0  0  0
    4.7976    1.9096    0.0000 H   0  0  0  0  0  0  0  0  0  0  0  0
    4.0405    2.1588    0.0000 H   0  0  0  0  0  0  0  0  0  0  0  0
    4.6434   -0.7322    0.0000 H   0  0  0  0  0  0  0  0  0  0  0  0
    5.2378   -0.2012    0.0000 H   0  0  0  0  0  0  0  0  0  0  0  0
    3.2724    1.9986    0.0000 H   0  0  0  0  0  0  0  0  0  0  0  0
    2.6780    1.4676    0.0000 H   0  0  0  0  0  0  0  0  0  0  0  0
    3.1182   -0.6432    0.0000 H   0  0  0  0  0  0  0  0  0  0  0  0
    3.8752   -0.8924    0.0000 H   0  0  0  0  0  0  0  0  0  0  0  0
    6.4428    1.3680    0.0000 H   0  0  0  0  0  0  0  0  0  0  0  0
    5.6857    1.6172    0.0000 H   0  0  0  0  0  0  0  0  0  0  0  0
    7.8009    1.0919    0.0000 H   0  0  0  0  0  0  0  0  0  0  0  0
    1.8734    0.8319    0.0000 H   0  0  0  0  0  0  0  0  0  0  0  0
    1.3931    0.0984    0.0000 H   0  0  0  0  0  0  0  0  0  0  0  0
    2.1266   -0.3820    0.0000 H   0  0  0  0  0  0  0  0  0  0  0  0
    5.6542   -0.8261    0.0000 H   0  0  0  0  0  0  0  0  0  0  0  0
    6.7783   -2.0554    0.0000 H   0  0  0  0  0  0  0  0  0  0  0  0
    8.7336   -3.2660    0.0000 H   0  0  0  0  0  0  0  0  0  0  0  0
   11.2979   -0.0576    0.0000 H   0  0  0  0  0  0  0  0  0  0  0  0
   12.1577   -2.7195    0.0000 H   0  0  0  0  0  0  0  0  0  0  0  0
   14.6010    2.4581    0.0000 H   0  0  0  0  0  0  0  0  0  0  0  0
   13.8723    2.1352    0.0000 H   0  0  0  0  0  0  0  0  0  0  0  0
   16.1845    3.1599    0.0000 H   0  0  0  0  0  0  0  0  0  0  0  0
   15.4558    2.8370    0.0000 H   0  0  0  0  0  0  0  0  0  0  0  0
   16.8350    1.8623    0.0000 H   0  0  0  0  0  0  0  0  0  0  0  0
   17.5637    2.1852    0.0000 H   0  0  0  0  0  0  0  0  0  0  0  0
   18.5245    2.5432    0.0000 H   0  0  0  0  0  0  0  0  0  0  0  0
   19.2069    3.0938    0.0000 H   0  0  0  0  0  0  0  0  0  0  0  0
   18.6563    3.7762    0.0000 H   0  0  0  0  0  0  0  0  0  0  0  0
  1 27  1  0  0  0  0
  1 28  1  0  0  0  0
  2 22  2  0  0  0  0
  3 31  1  0  0  0  0
  3 32  1  0  0  0  0
  4 33  1  0  0  0  0
  4 34  1  0  0  0  0
  5  9  1  0  0  0  0
  5 10  1  0  0  0  0
  5 13  1  0  0  0  0
  6 11  1  0  0  0  0
  6 12  1  0  0  0  0
  6 17  1  0  0  0  0
  7  8  1  0  0  0  0
  7 19  1  0  0  0  0
  7 51  1  0  0  0  0
  8 24  2  0  0  0  0
  9 11  1  0  0  0  0
  9 35  1  0  0  0  0
  9 36  1  0  0  0  0
 10 12  1  0  0  0  0
 10 37  1  0  0  0  0
 10 38  1  0  0  0  0
 11 39  1  0  0  0  0
 11 40  1  0  0  0  0
 12 41  1  0  0  0  0
 12 42  1  0  0  0  0
 13 14  1  0  0  0  0
 13 43  1  0  0  0  0
 13 44  1  0  0  0  0
 14 18  2  0  0  0  0
 14 21  1  0  0  0  0
 15 16  2  0  0  0  0
 15 18  1  0  0  0  0
 15 22  1  0  0  0  0
 16 19  1  0  0  0  0
 16 23  1  0  0  0  0
 17 46  1  0  0  0  0
 17 47  1  0  0  0  0
 17 48  1  0  0  0  0
 18 45  1  0  0  0  0
 19 20  2  0  0  0  0
 20 22  1  0  0  0  0
 20 24  1  0  0  0  0
 21 23  2  0  0  0  0
 21 49  1  0  0  0  0
 23 50  1  0  0  0  0
 24 25  1  0  0  0  0
 25 26  1  0  0  0  0
 25 27  2  0  0  0  0
 26 28  2  0  0  0  0
 26 52  1  0  0  0  0
 27 53  1  0  0  0  0
 28 29  1  0  0  0  0
 29 30  3  0  0  0  0
 30 31  1  0  0  0  0
 31 54  1  0  0  0  0
 31 55  1  0  0  0  0
 32 33  1  0  0  0  0
 32 56  1  0  0  0  0
 32 57  1  0  0  0  0
 33 58  1  0  0  0  0
 33 59  1  0  0  0  0
 34 60  1  0  0  0  0
 34 61  1  0  0  0  0
 34 62  1  0  0  0  0
M  END
> <PUBCHEM_COMPOUND_CID>
16220223

> <PUBCHEM_COMPOUND_CANONICALIZED>
1

> <PUBCHEM_CACTVS_COMPLEXITY>
776

> <PUBCHEM_CACTVS_HBOND_ACCEPTOR>
7

> <PUBCHEM_CACTVS_HBOND_DONOR>
1

> <PUBCHEM_CACTVS_ROTATABLE_BOND>
8

> <PUBCHEM_CACTVS_SUBSKEYS>
AAADceB7sABAAAAAAAAAAAAAAAAAAeJEAAA8QAAAAAAWAGAB8AAAHgQYAAAADAzl3gaygZNjBAjuE6RyQAiTBIAkCBBYuTkoRNgJYLqg1dGWpYhgiACqycccicCOwAACAAAQAACAAAQAACAAASAACQAAAA==

> <PUBCHEM_IUPAC_OPENEYE_NAME>
3-[5-[3-(2-methoxyethoxy)prop-1-ynyl]-3-thienyl]-6-[(4-methylpiperazin-1-yl)methyl]-1H-indeno[1,2-c]pyrazol-4-one

> <PUBCHEM_IUPAC_CAS_NAME>
3-[5-[3-(2-methoxyethoxy)prop-1-ynyl]-3-thiophenyl]-6-[(4-methyl-1-piperazinyl)methyl]-1H-indeno[1,2-c]pyrazol-4-one

> <PUBCHEM_IUPAC_NAME_MARKUP>
3-[5-[3-(2-methoxyethoxy)prop-1-ynyl]thiophen-3-yl]-6-[(4-methylpiperazin-1-yl)methyl]-1<I>H</I>-indeno[1,2-c]pyrazol-4-one

> <PUBCHEM_IUPAC_NAME>
3-[5-[3-(2-methoxyethoxy)prop-1-ynyl]thiophen-3-yl]-6-[(4-methylpiperazin-1-yl)methyl]-1H-indeno[1,2-c]pyrazol-4-one

> <PUBCHEM_IUPAC_SYSTEMATIC_NAME>
3-[5-[3-(2-methoxyethoxy)prop-1-ynyl]thiophen-3-yl]-6-[(4-methylpiperazin-1-yl)methyl]-1H-indeno[1,2-c]pyrazol-4-one

> <PUBCHEM_IUPAC_TRADITIONAL_NAME>
3-[5-[3-(2-methoxyethoxy)prop-1-ynyl]-3-thienyl]-6-[(4-methylpiperazino)methyl]-1H-indeno[1,2-c]pyrazol-4-one

> <PUBCHEM_IUPAC_INCHI>
InChI=1S/C26H28N4O3S/c1-29-7-9-30(10-8-29)16-18-5-6-21-22(14-18)26(31)23-24(27-28-25(21)23)19-15-20(34-17-19)4-3-11-33-13-12-32-2/h5-6,14-15,17H,7-13,16H2,1-2H3,(H,27,28)

> <PUBCHEM_IUPAC_INCHIKEY>
YACXOXQTGJXYNX-UHFFFAOYSA-N

> <PUBCHEM_XLOGP3_AA>
2.3

> <PUBCHEM_EXACT_MASS>
476.18821194

> <PUBCHEM_MOLECULAR_FORMULA>
C26H28N4O3S

> <PUBCHEM_MOLECULAR_WEIGHT>
476.6

> <PUBCHEM_SMILES>
CN1CCN(CC1)CC2=CC3=C(C=C2)C4=C(C3=O)C(=NN4)C5=CSC(=C5)C#CCOCCOC

> <PUBCHEM_OPENEYE_CAN_SMILES>
CN1CCN(CC1)CC2=CC3=C(C=C2)C4=C(C3=O)C(=NN4)C5=CSC(=C5)C#CCOCCOC

> <PUBCHEM_OPENEYE_ISO_SMILES>
CN1CCN(CC1)CC2=CC3=C(C=C2)C4=C(C3=O)C(=NN4)C5=CSC(=C5)C#CCOCCOC

> <PUBCHEM_CACTVS_TPSA>
98.9

> <PUBCHEM_MONOISOTOPIC_WEIGHT>
476.18821194

> <PUBCHEM_TOTAL_CHARGE>
0

> <PUBCHEM_HEAVY_ATOM_COUNT>
34

> <PUBCHEM_ATOM_DEF_STEREO_COUNT>
0

> <PUBCHEM_ATOM_UDEF_STEREO_COUNT>
0

> <PUBCHEM_BOND_DEF_STEREO_COUNT>
0

> <PUBCHEM_BOND_UDEF_STEREO_COUNT>
0

> <PUBCHEM_ISOTOPIC_ATOM_COUNT>
0

> <PUBCHEM_COMPONENT_COUNT>
1

> <PUBCHEM_CACTVS_TAUTO_COUNT>
-1

> <PUBCHEM_COORDINATE_TYPE>
1
5
255

> <PUBCHEM_BONDANNOTATIONS>
1  27  8
1  28  8
14  18  8
14  21  8
15  16  8
15  18  8
16  23  8
19  20  8
20  24  8
21  23  8
25  26  8
25  27  8
26  28  8
7  19  8
7  8  8
8  24  8

$$$$
