135398495
  -OEChem-03202506442D

 51 55  0     0  0  0  0  0  0999 V2000
    2.0000    1.3884    0.0000 O   0  0  0  0  0  0  0  0  0  0  0  0
   11.6520   -0.4069    0.0000 O   0  0  0  0  0  0  0  0  0  0  0  0
   10.3649   -1.5658    0.0000 N   0  0  0  0  0  0  0  0  0  0  0  0
    3.7320    2.3885    0.0000 N   0  0  0  0  0  0  0  0  0  0  0  0
   10.0047    0.1284    0.0000 N   0  0  0  0  0  0  0  0  0  0  0  0
    8.1424    2.6932    0.0000 N   0  0  0  0  0  0  0  0  0  0  0  0
    8.1424    1.0837    0.0000 N   0  0  0  0  0  0  0  0  0  0  0  0
   10.3138    2.6975    0.0000 N   0  0  0  0  0  0  0  0  0  0  0  0
   11.2648    2.3885    0.0000 N   0  0  0  0  0  0  0  0  0  0  0  0
   11.0340   -2.3090    0.0000 C   0  0  0  0  0  0  0  0  0  0  0  0
   11.2419   -3.2871    0.0000 C   0  0  0  0  0  0  0  0  0  0  0  0
   11.9851   -2.6180    0.0000 C   0  0  0  0  0  0  0  0  0  0  0  0
   10.6739   -0.6148    0.0000 C   0  0  0  0  0  0  0  0  0  0  0  0
    3.7320    1.3884    0.0000 C   0  0  0  0  0  0  0  0  0  0  0  0
    2.8660    2.8885    0.0000 C   0  0  0  0  0  0  0  0  0  0  0  0
    4.5981    2.8885    0.0000 C   0  0  0  0  0  0  0  0  0  0  0  0
    2.8660    0.8884    0.0000 C   0  0  0  0  0  0  0  0  0  0  0  0
    2.0000    2.3885    0.0000 C   0  0  0  0  0  0  0  0  0  0  0  0
    5.4641    2.3885    0.0000 C   0  0  0  0  0  0  0  0  0  0  0  0
    7.1962    2.3885    0.0000 C   0  0  0  0  0  0  0  0  0  0  0  0
    6.3301    2.8885    0.0000 C   0  0  0  0  0  0  0  0  0  0  0  0
   10.3138    1.0794    0.0000 C   0  0  0  0  0  0  0  0  0  0  0  0
    7.1962    1.3884    0.0000 C   0  0  0  0  0  0  0  0  0  0  0  0
    5.4641    1.3884    0.0000 C   0  0  0  0  0  0  0  0  0  0  0  0
    9.7260    1.8884    0.0000 C   0  0  0  0  0  0  0  0  0  0  0  0
    8.7260    1.8884    0.0000 C   0  0  0  0  0  0  0  0  0  0  0  0
    6.3301    0.8884    0.0000 C   0  0  0  0  0  0  0  0  0  0  0  0
   11.2648    1.3884    0.0000 C   0  0  0  0  0  0  0  0  0  0  0  0
   10.4816   -2.5904    0.0000 H   0  0  0  0  0  0  0  0  0  0  0  0
   10.6671   -3.5194    0.0000 H   0  0  0  0  0  0  0  0  0  0  0  0
   11.5705   -3.8129    0.0000 H   0  0  0  0  0  0  0  0  0  0  0  0
   12.4736   -2.9997    0.0000 H   0  0  0  0  0  0  0  0  0  0  0  0
   12.2761   -2.0706    0.0000 H   0  0  0  0  0  0  0  0  0  0  0  0
    9.7584   -1.6947    0.0000 H   0  0  0  0  0  0  0  0  0  0  0  0
    3.9441    0.8058    0.0000 H   0  0  0  0  0  0  0  0  0  0  0  0
    4.3426    1.4961    0.0000 H   0  0  0  0  0  0  0  0  0  0  0  0
    3.2646    3.3634    0.0000 H   0  0  0  0  0  0  0  0  0  0  0  0
    2.4675    3.3634    0.0000 H   0  0  0  0  0  0  0  0  0  0  0  0
    4.9966    3.3634    0.0000 H   0  0  0  0  0  0  0  0  0  0  0  0
    4.1996    3.3634    0.0000 H   0  0  0  0  0  0  0  0  0  0  0  0
    2.4675    0.4135    0.0000 H   0  0  0  0  0  0  0  0  0  0  0  0
    3.2646    0.4135    0.0000 H   0  0  0  0  0  0  0  0  0  0  0  0
    1.7880    2.9711    0.0000 H   0  0  0  0  0  0  0  0  0  0  0  0
    1.3894    2.2808    0.0000 H   0  0  0  0  0  0  0  0  0  0  0  0
    9.3983   -0.0005    0.0000 H   0  0  0  0  0  0  0  0  0  0  0  0
    6.3301    3.5084    0.0000 H   0  0  0  0  0  0  0  0  0  0  0  0
    4.9272    1.0784    0.0000 H   0  0  0  0  0  0  0  0  0  0  0  0
    8.3350    3.2825    0.0000 H   0  0  0  0  0  0  0  0  0  0  0  0
    6.3301    0.2684    0.0000 H   0  0  0  0  0  0  0  0  0  0  0  0
   11.7664    1.0240    0.0000 H   0  0  0  0  0  0  0  0  0  0  0  0
   10.1222    3.2871    0.0000 H   0  0  0  0  0  0  0  0  0  0  0  0
  1 17  1  0  0  0  0
  1 18  1  0  0  0  0
  2 13  2  0  0  0  0
  3 10  1  0  0  0  0
  3 13  1  0  0  0  0
  3 34  1  0  0  0  0
  4 14  1  0  0  0  0
  4 15  1  0  0  0  0
  4 16  1  0  0  0  0
  5 13  1  0  0  0  0
  5 22  1  0  0  0  0
  5 45  1  0  0  0  0
  6 20  1  0  0  0  0
  6 26  1  0  0  0  0
  6 48  1  0  0  0  0
  7 23  1  0  0  0  0
  7 26  2  0  0  0  0
  8  9  1  0  0  0  0
  8 25  1  0  0  0  0
  8 51  1  0  0  0  0
  9 28  2  0  0  0  0
 10 11  1  0  0  0  0
 10 12  1  0  0  0  0
 10 29  1  0  0  0  0
 11 12  1  0  0  0  0
 11 30  1  0  0  0  0
 11 31  1  0  0  0  0
 12 32  1  0  0  0  0
 12 33  1  0  0  0  0
 14 17  1  0  0  0  0
 14 35  1  0  0  0  0
 14 36  1  0  0  0  0
 15 18  1  0  0  0  0
 15 37  1  0  0  0  0
 15 38  1  0  0  0  0
 16 19  1  0  0  0  0
 16 39  1  0  0  0  0
 16 40  1  0  0  0  0
 17 41  1  0  0  0  0
 17 42  1  0  0  0  0
 18 43  1  0  0  0  0
 18 44  1  0  0  0  0
 19 21  2  0  0  0  0
 19 24  1  0  0  0  0
 20 21  1  0  0  0  0
 20 23  2  0  0  0  0
 21 46  1  0  0  0  0
 22 25  2  0  0  0  0
 22 28  1  0  0  0  0
 23 27  1  0  0  0  0
 24 27  2  0  0  0  0
 24 47  1  0  0  0  0
 25 26  1  0  0  0  0
 27 49  1  0  0  0  0
 28 50  1  0  0  0  0
M  END
> <PUBCHEM_COMPOUND_CID>
135398495

> <PUBCHEM_COMPOUND_CANONICALIZED>
1

> <PUBCHEM_CACTVS_COMPLEXITY>
554

> <PUBCHEM_CACTVS_HBOND_ACCEPTOR>
5

> <PUBCHEM_CACTVS_HBOND_DONOR>
4

> <PUBCHEM_CACTVS_ROTATABLE_BOND>
5

> <PUBCHEM_CACTVS_SUBSKEYS>
AAADceB7sAAAAAAAAAAAAAAAGAAAAWLAAAA8QAAAAAAAAFgB/AAAHgAYAAAADCjhnwY90LfrlACqAzZndACShC2hkqAZuaA4dJiKaKLA2dGXpAhongLYyCcQgAAOCAAAQAAAACAQAACAAAAAQAAAAAAAAA==

> <PUBCHEM_IUPAC_OPENEYE_NAME>
1-cyclopropyl-3-[5-[6-(morpholinomethyl)-1H-benzimidazol-2-yl]-1H-pyrazol-4-yl]urea

> <PUBCHEM_IUPAC_CAS_NAME>
1-cyclopropyl-3-[5-[6-(4-morpholinylmethyl)-1H-benzimidazol-2-yl]-1H-pyrazol-4-yl]urea

> <PUBCHEM_IUPAC_NAME_MARKUP>
1-cyclopropyl-3-[5-[6-(morpholin-4-ylmethyl)-1<I>H</I>-benzimidazol-2-yl]-1<I>H</I>-pyrazol-4-yl]urea

> <PUBCHEM_IUPAC_NAME>
1-cyclopropyl-3-[5-[6-(morpholin-4-ylmethyl)-1H-benzimidazol-2-yl]-1H-pyrazol-4-yl]urea

> <PUBCHEM_IUPAC_SYSTEMATIC_NAME>
1-cyclopropyl-3-[5-[6-(morpholin-4-ylmethyl)-1H-benzimidazol-2-yl]-1H-pyrazol-4-yl]urea

> <PUBCHEM_IUPAC_TRADITIONAL_NAME>
1-cyclopropyl-3-[5-[6-(morpholinomethyl)-1H-benzimidazol-2-yl]-1H-pyrazol-4-yl]urea

> <PUBCHEM_IUPAC_INCHI>
InChI=1S/C19H23N7O2/c27-19(21-13-2-3-13)24-16-10-20-25-17(16)18-22-14-4-1-12(9-15(14)23-18)11-26-5-7-28-8-6-26/h1,4,9-10,13H,2-3,5-8,11H2,(H,20,25)(H,22,23)(H2,21,24,27)

> <PUBCHEM_IUPAC_INCHIKEY>
LOLPPWBBNUVNQZ-UHFFFAOYSA-N

> <PUBCHEM_XLOGP3_AA>
0.5

> <PUBCHEM_EXACT_MASS>
381.19132300

> <PUBCHEM_MOLECULAR_FORMULA>
C19H23N7O2

> <PUBCHEM_MOLECULAR_WEIGHT>
381.4

> <PUBCHEM_SMILES>
C1CC1NC(=O)NC2=C(NN=C2)C3=NC4=C(N3)C=C(C=C4)CN5CCOCC5

> <PUBCHEM_OPENEYE_CAN_SMILES>
C1CC1NC(=O)NC2=C(NN=C2)C3=NC4=C(N3)C=C(C=C4)CN5CCOCC5

> <PUBCHEM_OPENEYE_ISO_SMILES>
C1CC1NC(=O)NC2=C(NN=C2)C3=NC4=C(N3)C=C(C=C4)CN5CCOCC5

> <PUBCHEM_CACTVS_TPSA>
111

> <PUBCHEM_MONOISOTOPIC_WEIGHT>
381.19132300

> <PUBCHEM_TOTAL_CHARGE>
0

> <PUBCHEM_HEAVY_ATOM_COUNT>
28

> <PUBCHEM_ATOM_DEF_STEREO_COUNT>
0

> <PUBCHEM_ATOM_UDEF_STEREO_COUNT>
0

> <PUBCHEM_BOND_DEF_STEREO_COUNT>
0

> <PUBCHEM_BOND_UDEF_STEREO_COUNT>
0

> <PUBCHEM_ISOTOPIC_ATOM_COUNT>
0

> <PUBCHEM_COMPONENT_COUNT>
1

> <PUBCHEM_CACTVS_TAUTO_COUNT>
-1

> <PUBCHEM_COORDINATE_TYPE>
1
5
255

> <PUBCHEM_BONDANNOTATIONS>
19  21  8
19  24  8
20  21  8
20  23  8
22  25  8
22  28  8
23  27  8
24  27  8
6  20  8
6  26  8
7  23  8
7  26  8
8  25  8
8  9  8
9  28  8

$$$$
