49830532
  -OEChem-03202503332D

 45 47  0     0  0  0  0  0  0999 V2000
    5.4641    1.5600    0.0000 O   0  0  0  0  0  0  0  0  0  0  0  0
   12.4725   -1.2447    0.0000 N   0  0  0  0  0  0  0  0  0  0  0  0
    9.7942    0.0600    0.0000 N   0  0  0  0  0  0  0  0  0  0  0  0
    8.9282   -1.4400    0.0000 N   0  0  0  0  0  0  0  0  0  0  0  0
   10.6603   -1.4400    0.0000 N   0  0  0  0  0  0  0  0  0  0  0  0
    4.5981    0.0600    0.0000 N   0  0  0  0  0  0  0  0  0  0  0  0
   11.5263    0.0600    0.0000 C   0  0  0  0  0  0  0  0  0  0  0  0
   10.6603    0.5600    0.0000 C   0  0  0  0  0  0  0  0  0  0  0  0
   11.5263   -0.9400    0.0000 C   0  0  0  0  0  0  0  0  0  0  0  0
   10.6603    1.5600    0.0000 C   0  0  0  0  0  0  0  0  0  0  0  0
   12.4725    0.3647    0.0000 C   0  0  0  0  0  0  0  0  0  0  0  0
    9.7942   -0.9400    0.0000 C   0  0  0  0  0  0  0  0  0  0  0  0
   13.0561   -0.4400    0.0000 C   0  0  0  0  0  0  0  0  0  0  0  0
    8.0622   -0.9400    0.0000 C   0  0  0  0  0  0  0  0  0  0  0  0
    3.7320    0.5600    0.0000 C   0  0  0  0  0  0  0  0  0  0  0  0
    6.3301    0.0600    0.0000 C   0  0  0  0  0  0  0  0  0  0  0  0
    9.7942    2.0600    0.0000 C   0  0  0  0  0  0  0  0  0  0  0  0
    2.8660    0.0600    0.0000 C   0  0  0  0  0  0  0  0  0  0  0  0
    7.1962   -1.4400    0.0000 C   0  0  0  0  0  0  0  0  0  0  0  0
    8.0622    0.0600    0.0000 C   0  0  0  0  0  0  0  0  0  0  0  0
    6.3301   -0.9400    0.0000 C   0  0  0  0  0  0  0  0  0  0  0  0
    7.1962    0.5600    0.0000 C   0  0  0  0  0  0  0  0  0  0  0  0
    5.4641    0.5600    0.0000 C   0  0  0  0  0  0  0  0  0  0  0  0
    2.0000    0.5600    0.0000 C   0  0  0  0  0  0  0  0  0  0  0  0
   11.2708    1.4523    0.0000 H   0  0  0  0  0  0  0  0  0  0  0  0
   10.8723    2.1426    0.0000 H   0  0  0  0  0  0  0  0  0  0  0  0
   12.6651    0.9541    0.0000 H   0  0  0  0  0  0  0  0  0  0  0  0
   12.6651   -1.8340    0.0000 H   0  0  0  0  0  0  0  0  0  0  0  0
   13.6761   -0.4400    0.0000 H   0  0  0  0  0  0  0  0  0  0  0  0
    8.9282   -2.0600    0.0000 H   0  0  0  0  0  0  0  0  0  0  0  0
    4.1306    1.0350    0.0000 H   0  0  0  0  0  0  0  0  0  0  0  0
    3.3335    1.0350    0.0000 H   0  0  0  0  0  0  0  0  0  0  0  0
   10.1042    2.5969    0.0000 H   0  0  0  0  0  0  0  0  0  0  0  0
    9.2573    2.3700    0.0000 H   0  0  0  0  0  0  0  0  0  0  0  0
    9.4842    1.5231    0.0000 H   0  0  0  0  0  0  0  0  0  0  0  0
    2.4675   -0.4149    0.0000 H   0  0  0  0  0  0  0  0  0  0  0  0
    3.2646   -0.4149    0.0000 H   0  0  0  0  0  0  0  0  0  0  0  0
    7.1962   -2.0600    0.0000 H   0  0  0  0  0  0  0  0  0  0  0  0
    8.5991    0.3700    0.0000 H   0  0  0  0  0  0  0  0  0  0  0  0
    4.5981   -0.5600    0.0000 H   0  0  0  0  0  0  0  0  0  0  0  0
    5.7932   -1.2500    0.0000 H   0  0  0  0  0  0  0  0  0  0  0  0
    7.1962    1.1800    0.0000 H   0  0  0  0  0  0  0  0  0  0  0  0
    2.3100    1.0969    0.0000 H   0  0  0  0  0  0  0  0  0  0  0  0
    1.4631    0.8700    0.0000 H   0  0  0  0  0  0  0  0  0  0  0  0
    1.6900    0.0231    0.0000 H   0  0  0  0  0  0  0  0  0  0  0  0
  1 23  2  0  0  0  0
  2  9  1  0  0  0  0
  2 13  1  0  0  0  0
  2 28  1  0  0  0  0
  3  8  1  0  0  0  0
  3 12  2  0  0  0  0
  4 12  1  0  0  0  0
  4 14  1  0  0  0  0
  4 30  1  0  0  0  0
  5  9  2  0  0  0  0
  5 12  1  0  0  0  0
  6 15  1  0  0  0  0
  6 23  1  0  0  0  0
  6 40  1  0  0  0  0
  7  8  2  0  0  0  0
  7  9  1  0  0  0  0
  7 11  1  0  0  0  0
  8 10  1  0  0  0  0
 10 17  1  0  0  0  0
 10 25  1  0  0  0  0
 10 26  1  0  0  0  0
 11 13  2  0  0  0  0
 11 27  1  0  0  0  0
 13 29  1  0  0  0  0
 14 19  2  0  0  0  0
 14 20  1  0  0  0  0
 15 18  1  0  0  0  0
 15 31  1  0  0  0  0
 15 32  1  0  0  0  0
 16 21  2  0  0  0  0
 16 22  1  0  0  0  0
 16 23  1  0  0  0  0
 17 33  1  0  0  0  0
 17 34  1  0  0  0  0
 17 35  1  0  0  0  0
 18 24  1  0  0  0  0
 18 36  1  0  0  0  0
 18 37  1  0  0  0  0
 19 21  1  0  0  0  0
 19 38  1  0  0  0  0
 20 22  2  0  0  0  0
 20 39  1  0  0  0  0
 21 41  1  0  0  0  0
 22 42  1  0  0  0  0
 24 43  1  0  0  0  0
 24 44  1  0  0  0  0
 24 45  1  0  0  0  0
M  END
> <PUBCHEM_COMPOUND_CID>
49830532

> <PUBCHEM_COMPOUND_CANONICALIZED>
1

> <PUBCHEM_CACTVS_COMPLEXITY>
410

> <PUBCHEM_CACTVS_HBOND_ACCEPTOR>
4

> <PUBCHEM_CACTVS_HBOND_DONOR>
3

> <PUBCHEM_CACTVS_ROTATABLE_BOND>
6

> <PUBCHEM_CACTVS_SUBSKEYS>
AAADceB7oAAAAAAAAAAAAAAAAAAAAWAAAAA8QAAAAAAAAFgB/AAAHgAQAAAADAjBnwQ/8N7JkACoAzd3dACCgCm1AqAJ2aE4ZNiIKPLA3dGEJQholgLIyacYiQCeCAAAAAAAAAAQAAAAAAAAAAAAAAAAAA==

> <PUBCHEM_IUPAC_OPENEYE_NAME>
4-[(4-ethyl-7H-pyrrolo[2,3-d]pyrimidin-2-yl)amino]-N-propyl-benzamide

> <PUBCHEM_IUPAC_CAS_NAME>
4-[(4-ethyl-7H-pyrrolo[2,3-d]pyrimidin-2-yl)amino]-N-propylbenzamide

> <PUBCHEM_IUPAC_NAME_MARKUP>
4-[(4-ethyl-7<I>H</I>-pyrrolo[2,3-d]pyrimidin-2-yl)amino]-<I>N</I>-propylbenzamide

> <PUBCHEM_IUPAC_NAME>
4-[(4-ethyl-7H-pyrrolo[2,3-d]pyrimidin-2-yl)amino]-N-propylbenzamide

> <PUBCHEM_IUPAC_SYSTEMATIC_NAME>
4-[(4-ethyl-7H-pyrrolo[2,3-d]pyrimidin-2-yl)amino]-N-propyl-benzamide

> <PUBCHEM_IUPAC_TRADITIONAL_NAME>
4-[(4-ethyl-7H-pyrrolo[2,3-d]pyrimidin-2-yl)amino]-N-propyl-benzamide

> <PUBCHEM_IUPAC_INCHI>
InChI=1S/C18H21N5O/c1-3-10-20-17(24)12-5-7-13(8-6-12)21-18-22-15(4-2)14-9-11-19-16(14)23-18/h5-9,11H,3-4,10H2,1-2H3,(H,20,24)(H2,19,21,22,23)

> <PUBCHEM_IUPAC_INCHIKEY>
VRIFJAKXSBXYFZ-UHFFFAOYSA-N

> <PUBCHEM_XLOGP3_AA>
3.5

> <PUBCHEM_EXACT_MASS>
323.17461031

> <PUBCHEM_MOLECULAR_FORMULA>
C18H21N5O

> <PUBCHEM_MOLECULAR_WEIGHT>
323.4

> <PUBCHEM_SMILES>
CCCNC(=O)C1=CC=C(C=C1)NC2=NC(=C3C=CNC3=N2)CC

> <PUBCHEM_OPENEYE_CAN_SMILES>
CCCNC(=O)C1=CC=C(C=C1)NC2=NC(=C3C=CNC3=N2)CC

> <PUBCHEM_OPENEYE_ISO_SMILES>
CCCNC(=O)C1=CC=C(C=C1)NC2=NC(=C3C=CNC3=N2)CC

> <PUBCHEM_CACTVS_TPSA>
82.7

> <PUBCHEM_MONOISOTOPIC_WEIGHT>
323.17461031

> <PUBCHEM_TOTAL_CHARGE>
0

> <PUBCHEM_HEAVY_ATOM_COUNT>
24

> <PUBCHEM_ATOM_DEF_STEREO_COUNT>
0

> <PUBCHEM_ATOM_UDEF_STEREO_COUNT>
0

> <PUBCHEM_BOND_DEF_STEREO_COUNT>
0

> <PUBCHEM_BOND_UDEF_STEREO_COUNT>
0

> <PUBCHEM_ISOTOPIC_ATOM_COUNT>
0

> <PUBCHEM_COMPONENT_COUNT>
1

> <PUBCHEM_CACTVS_TAUTO_COUNT>
-1

> <PUBCHEM_COORDINATE_TYPE>
1
5
255

> <PUBCHEM_BONDANNOTATIONS>
11  13  8
14  19  8
14  20  8
16  21  8
16  22  8
19  21  8
2  13  8
2  9  8
20  22  8
3  12  8
3  8  8
5  12  8
5  9  8
7  11  8
7  8  8
7  9  8

$$$$
