49830648
  -OEChem-03202503182D

 77 80  0     0  0  0  0  0  0999 V2000
    9.0635   -0.1115    0.0000 O   0  0  0  0  0  0  0  0  0  0  0  0
    5.5717    2.6251    0.0000 O   0  0  0  0  0  0  0  0  0  0  0  0
    9.5987   -1.7588    0.0000 N   0  0  0  0  0  0  0  0  0  0  0  0
    5.4672   -0.3694    0.0000 N   0  0  0  0  0  0  0  0  0  0  0  0
    4.4890   -0.5773    0.0000 N   0  0  0  0  0  0  0  0  0  0  0  0
    6.4378    1.1251    0.0000 N   0  0  0  0  0  0  0  0  0  0  0  0
   10.6692   -5.0533    0.0000 N   0  0  0  0  0  0  0  0  0  0  0  0
    7.3038    2.6251    0.0000 N   0  0  0  0  0  0  0  0  0  0  0  0
    2.9945    0.3932    0.0000 C   0  0  0  0  0  0  0  0  0  0  0  0
    3.9890    0.2887    0.0000 C   0  0  0  0  0  0  0  0  0  0  0  0
    2.0000    0.4978    0.0000 C   0  0  0  0  0  0  0  0  0  0  0  0
    2.8900   -0.6013    0.0000 C   0  0  0  0  0  0  0  0  0  0  0  0
    3.0990    1.3878    0.0000 C   0  0  0  0  0  0  0  0  0  0  0  0
   10.5498   -1.4498    0.0000 C   0  0  0  0  0  0  0  0  0  0  0  0
    4.6582    1.0318    0.0000 C   0  0  0  0  0  0  0  0  0  0  0  0
    5.5717    0.6251    0.0000 C   0  0  0  0  0  0  0  0  0  0  0  0
    9.3908   -2.7369    0.0000 C   0  0  0  0  0  0  0  0  0  0  0  0
    6.2103   -1.0385    0.0000 C   0  0  0  0  0  0  0  0  0  0  0  0
   10.1340   -3.4060    0.0000 C   0  0  0  0  0  0  0  0  0  0  0  0
    8.8556   -1.0896    0.0000 C   0  0  0  0  0  0  0  0  0  0  0  0
    7.9045   -1.3986    0.0000 C   0  0  0  0  0  0  0  0  0  0  0  0
    7.1614   -0.7295    0.0000 C   0  0  0  0  0  0  0  0  0  0  0  0
   11.2929   -2.1189    0.0000 C   0  0  0  0  0  0  0  0  0  0  0  0
   10.7577   -0.4716    0.0000 C   0  0  0  0  0  0  0  0  0  0  0  0
    6.0024   -2.0167    0.0000 C   0  0  0  0  0  0  0  0  0  0  0  0
    9.9261   -4.3842    0.0000 C   0  0  0  0  0  0  0  0  0  0  0  0
    7.6966   -2.3768    0.0000 C   0  0  0  0  0  0  0  0  0  0  0  0
    6.7456   -2.6858    0.0000 C   0  0  0  0  0  0  0  0  0  0  0  0
    6.4378    2.1251    0.0000 C   0  0  0  0  0  0  0  0  0  0  0  0
    7.3038    3.6251    0.0000 C   0  0  0  0  0  0  0  0  0  0  0  0
    8.1698    4.1251    0.0000 C   0  0  0  0  0  0  0  0  0  0  0  0
    8.1698    5.1251    0.0000 C   0  0  0  0  0  0  0  0  0  0  0  0
    6.4378    4.1251    0.0000 C   0  0  0  0  0  0  0  0  0  0  0  0
    9.0637    3.5904    0.0000 C   0  0  0  0  0  0  0  0  0  0  0  0
    7.3038    5.6251    0.0000 C   0  0  0  0  0  0  0  0  0  0  0  0
    6.4378    5.1251    0.0000 C   0  0  0  0  0  0  0  0  0  0  0  0
    9.0637    5.6598    0.0000 C   0  0  0  0  0  0  0  0  0  0  0  0
    9.9698    4.1043    0.0000 C   0  0  0  0  0  0  0  0  0  0  0  0
    9.9698    5.1459    0.0000 C   0  0  0  0  0  0  0  0  0  0  0  0
    2.0648    1.1144    0.0000 H   0  0  0  0  0  0  0  0  0  0  0  0
    1.3834    0.5626    0.0000 H   0  0  0  0  0  0  0  0  0  0  0  0
    1.9352   -0.1188    0.0000 H   0  0  0  0  0  0  0  0  0  0  0  0
    2.2734   -0.5365    0.0000 H   0  0  0  0  0  0  0  0  0  0  0  0
    2.8252   -1.2179    0.0000 H   0  0  0  0  0  0  0  0  0  0  0  0
    3.5066   -0.6661    0.0000 H   0  0  0  0  0  0  0  0  0  0  0  0
    3.7156    1.3230    0.0000 H   0  0  0  0  0  0  0  0  0  0  0  0
    3.1639    2.0044    0.0000 H   0  0  0  0  0  0  0  0  0  0  0  0
    2.4824    1.4526    0.0000 H   0  0  0  0  0  0  0  0  0  0  0  0
   10.4209   -2.0562    0.0000 H   0  0  0  0  0  0  0  0  0  0  0  0
    4.5293    1.6383    0.0000 H   0  0  0  0  0  0  0  0  0  0  0  0
    8.8160   -2.5047    0.0000 H   0  0  0  0  0  0  0  0  0  0  0  0
    9.0623   -3.2627    0.0000 H   0  0  0  0  0  0  0  0  0  0  0  0
   10.7088   -3.6383    0.0000 H   0  0  0  0  0  0  0  0  0  0  0  0
   10.4625   -2.8803    0.0000 H   0  0  0  0  0  0  0  0  0  0  0  0
    7.2903   -0.1231    0.0000 H   0  0  0  0  0  0  0  0  0  0  0  0
   10.8781   -2.5796    0.0000 H   0  0  0  0  0  0  0  0  0  0  0  0
   11.7537   -2.5337    0.0000 H   0  0  0  0  0  0  0  0  0  0  0  0
   11.7078   -1.6581    0.0000 H   0  0  0  0  0  0  0  0  0  0  0  0
   11.3642   -0.6005    0.0000 H   0  0  0  0  0  0  0  0  0  0  0  0
   10.8866    0.1348    0.0000 H   0  0  0  0  0  0  0  0  0  0  0  0
   10.1513   -0.3427    0.0000 H   0  0  0  0  0  0  0  0  0  0  0  0
    6.9747    0.8151    0.0000 H   0  0  0  0  0  0  0  0  0  0  0  0
    5.4128   -2.2083    0.0000 H   0  0  0  0  0  0  0  0  0  0  0  0
    9.3512   -4.1519    0.0000 H   0  0  0  0  0  0  0  0  0  0  0  0
    9.5975   -4.9100    0.0000 H   0  0  0  0  0  0  0  0  0  0  0  0
    8.1574   -2.7917    0.0000 H   0  0  0  0  0  0  0  0  0  0  0  0
    6.6167   -3.2923    0.0000 H   0  0  0  0  0  0  0  0  0  0  0  0
   10.5403   -5.6598    0.0000 H   0  0  0  0  0  0  0  0  0  0  0  0
   11.2589   -4.8617    0.0000 H   0  0  0  0  0  0  0  0  0  0  0  0
    7.8407    2.3151    0.0000 H   0  0  0  0  0  0  0  0  0  0  0  0
    5.9008    3.8151    0.0000 H   0  0  0  0  0  0  0  0  0  0  0  0
    9.0566    2.9705    0.0000 H   0  0  0  0  0  0  0  0  0  0  0  0
    7.3038    6.2451    0.0000 H   0  0  0  0  0  0  0  0  0  0  0  0
    5.9008    5.4351    0.0000 H   0  0  0  0  0  0  0  0  0  0  0  0
    9.0566    6.2797    0.0000 H   0  0  0  0  0  0  0  0  0  0  0  0
   10.5055    3.7922    0.0000 H   0  0  0  0  0  0  0  0  0  0  0  0
   10.5055    5.4580    0.0000 H   0  0  0  0  0  0  0  0  0  0  0  0
  1 20  2  0  0  0  0
  2 29  2  0  0  0  0
  3 14  1  0  0  0  0
  3 17  1  0  0  0  0
  3 20  1  0  0  0  0
  4  5  1  0  0  0  0
  4 16  1  0  0  0  0
  4 18  1  0  0  0  0
  5 10  2  0  0  0  0
  6 16  1  0  0  0  0
  6 29  1  0  0  0  0
  6 62  1  0  0  0  0
  7 26  1  0  0  0  0
  7 68  1  0  0  0  0
  7 69  1  0  0  0  0
  8 29  1  0  0  0  0
  8 30  1  0  0  0  0
  8 70  1  0  0  0  0
  9 10  1  0  0  0  0
  9 11  1  0  0  0  0
  9 12  1  0  0  0  0
  9 13  1  0  0  0  0
 10 15  1  0  0  0  0
 11 40  1  0  0  0  0
 11 41  1  0  0  0  0
 11 42  1  0  0  0  0
 12 43  1  0  0  0  0
 12 44  1  0  0  0  0
 12 45  1  0  0  0  0
 13 46  1  0  0  0  0
 13 47  1  0  0  0  0
 13 48  1  0  0  0  0
 14 23  1  0  0  0  0
 14 24  1  0  0  0  0
 14 49  1  0  0  0  0
 15 16  2  0  0  0  0
 15 50  1  0  0  0  0
 17 19  1  0  0  0  0
 17 51  1  0  0  0  0
 17 52  1  0  0  0  0
 18 22  1  0  0  0  0
 18 25  2  0  0  0  0
 19 26  1  0  0  0  0
 19 53  1  0  0  0  0
 19 54  1  0  0  0  0
 20 21  1  0  0  0  0
 21 22  2  0  0  0  0
 21 27  1  0  0  0  0
 22 55  1  0  0  0  0
 23 56  1  0  0  0  0
 23 57  1  0  0  0  0
 23 58  1  0  0  0  0
 24 59  1  0  0  0  0
 24 60  1  0  0  0  0
 24 61  1  0  0  0  0
 25 28  1  0  0  0  0
 25 63  1  0  0  0  0
 26 64  1  0  0  0  0
 26 65  1  0  0  0  0
 27 28  2  0  0  0  0
 27 66  1  0  0  0  0
 28 67  1  0  0  0  0
 30 31  1  0  0  0  0
 30 33  2  0  0  0  0
 31 32  1  0  0  0  0
 31 34  2  0  0  0  0
 32 35  1  0  0  0  0
 32 37  2  0  0  0  0
 33 36  1  0  0  0  0
 33 71  1  0  0  0  0
 34 38  1  0  0  0  0
 34 72  1  0  0  0  0
 35 36  2  0  0  0  0
 35 73  1  0  0  0  0
 36 74  1  0  0  0  0
 37 39  1  0  0  0  0
 37 75  1  0  0  0  0
 38 39  2  0  0  0  0
 38 76  1  0  0  0  0
 39 77  1  0  0  0  0
M  END
> <PUBCHEM_COMPOUND_CID>
49830648

> <PUBCHEM_COMPOUND_CANONICALIZED>
1

> <PUBCHEM_CACTVS_COMPLEXITY>
813

> <PUBCHEM_CACTVS_HBOND_ACCEPTOR>
4

> <PUBCHEM_CACTVS_HBOND_DONOR>
3

> <PUBCHEM_CACTVS_ROTATABLE_BOND>
9

> <PUBCHEM_CACTVS_SUBSKEYS>
AAADcfB7sAAAAAAAAAAAAAAAAAAAAWAAAAAwYMAAAAAAAADB1AAAHgAYAAAADijBngQz8NPIAACqAydydACSBCMlAgAdmKE4ZNiIIHLA1dGEpQh4nwLIyacciICPgAAAQAASAAAAAACAACQAAAAAAAAAAA==

> <PUBCHEM_IUPAC_OPENEYE_NAME>
N-(3-aminopropyl)-3-[3-tert-butyl-5-(1-naphthylcarbamoylamino)pyrazol-1-yl]-N-isopropyl-benzamide

> <PUBCHEM_IUPAC_CAS_NAME>
N-(3-aminopropyl)-3-[3-tert-butyl-5-[[(1-naphthalenylamino)-oxomethyl]amino]-1-pyrazolyl]-N-propan-2-ylbenzamide

> <PUBCHEM_IUPAC_NAME_MARKUP>
<I>N</I>-(3-aminopropyl)-3-[3-<I>tert</I>-butyl-5-(naphthalen-1-ylcarbamoylamino)pyrazol-1-yl]-<I>N</I>-propan-2-ylbenzamide

> <PUBCHEM_IUPAC_NAME>
N-(3-aminopropyl)-3-[3-tert-butyl-5-(naphthalen-1-ylcarbamoylamino)pyrazol-1-yl]-N-propan-2-ylbenzamide

> <PUBCHEM_IUPAC_SYSTEMATIC_NAME>
N-(3-azanylpropyl)-3-[3-tert-butyl-5-(naphthalen-1-ylcarbamoylamino)pyrazol-1-yl]-N-propan-2-yl-benzamide

> <PUBCHEM_IUPAC_TRADITIONAL_NAME>
N-(3-aminopropyl)-3-[3-tert-butyl-5-(1-naphthylcarbamoylamino)pyrazol-1-yl]-N-isopropyl-benzamide

> <PUBCHEM_IUPAC_INCHI>
InChI=1S/C31H38N6O2/c1-21(2)36(18-10-17-32)29(38)23-13-8-14-24(19-23)37-28(20-27(35-37)31(3,4)5)34-30(39)33-26-16-9-12-22-11-6-7-15-25(22)26/h6-9,11-16,19-21H,10,17-18,32H2,1-5H3,(H2,33,34,39)

> <PUBCHEM_IUPAC_INCHIKEY>
STUPRWVTVIXNLF-UHFFFAOYSA-N

> <PUBCHEM_XLOGP3_AA>
5.4

> <PUBCHEM_EXACT_MASS>
526.30562448

> <PUBCHEM_MOLECULAR_FORMULA>
C31H38N6O2

> <PUBCHEM_MOLECULAR_WEIGHT>
526.7

> <PUBCHEM_SMILES>
CC(C)N(CCCN)C(=O)C1=CC(=CC=C1)N2C(=CC(=N2)C(C)(C)C)NC(=O)NC3=CC=CC4=CC=CC=C43

> <PUBCHEM_OPENEYE_CAN_SMILES>
CC(C)N(CCCN)C(=O)C1=CC(=CC=C1)N2C(=CC(=N2)C(C)(C)C)NC(=O)NC3=CC=CC4=CC=CC=C43

> <PUBCHEM_OPENEYE_ISO_SMILES>
CC(C)N(CCCN)C(=O)C1=CC(=CC=C1)N2C(=CC(=N2)C(C)(C)C)NC(=O)NC3=CC=CC4=CC=CC=C43

> <PUBCHEM_CACTVS_TPSA>
105

> <PUBCHEM_MONOISOTOPIC_WEIGHT>
526.30562448

> <PUBCHEM_TOTAL_CHARGE>
0

> <PUBCHEM_HEAVY_ATOM_COUNT>
39

> <PUBCHEM_ATOM_DEF_STEREO_COUNT>
0

> <PUBCHEM_ATOM_UDEF_STEREO_COUNT>
0

> <PUBCHEM_BOND_DEF_STEREO_COUNT>
0

> <PUBCHEM_BOND_UDEF_STEREO_COUNT>
0

> <PUBCHEM_ISOTOPIC_ATOM_COUNT>
0

> <PUBCHEM_COMPONENT_COUNT>
1

> <PUBCHEM_CACTVS_TAUTO_COUNT>
-1

> <PUBCHEM_COORDINATE_TYPE>
1
5
255

> <PUBCHEM_BONDANNOTATIONS>
10  15  8
15  16  8
18  22  8
18  25  8
21  22  8
21  27  8
25  28  8
27  28  8
30  31  8
30  33  8
31  32  8
31  34  8
32  35  8
32  37  8
33  36  8
34  38  8
35  36  8
37  39  8
38  39  8
4  16  8
4  5  8
5  10  8

$$$$
