6303347
  -OEChem-03202503362D

 48 52  0     0  0  0  0  0  0999 V2000
   12.2641   -3.1748    0.0000 Cl  0  0  0  0  0  0  0  0  0  0  0  0
   11.1393   -4.8286    0.0000 Cl  0  0  0  0  0  0  0  0  0  0  0  0
    5.3923    0.0040    0.0000 O   0  0  0  0  0  0  0  0  0  0  0  0
    7.6936   -1.7411    0.0000 O   0  0  0  0  0  0  0  0  0  0  0  0
    5.0274    1.7362    0.0000 N   0  0  0  0  0  0  0  0  0  0  0  0
    9.3997   -1.2267    0.0000 N   0  0  0  0  0  0  0  0  0  0  0  0
    9.8726   -0.3456    0.0000 N   0  0  0  0  0  0  0  0  0  0  0  0
    4.5274    3.2750    0.0000 N   0  0  0  0  0  0  0  0  0  0  0  0
    6.9478    4.8286    0.0000 N   0  0  0  0  0  0  0  0  0  0  0  0
    6.7328    1.1601    0.0000 C   0  0  0  0  0  0  0  0  0  0  0  0
    5.3364    2.6872    0.0000 C   0  0  0  0  0  0  0  0  0  0  0  0
    7.0547    2.1508    0.0000 C   0  0  0  0  0  0  0  0  0  0  0  0
    4.0274    1.7362    0.0000 C   0  0  0  0  0  0  0  0  0  0  0  0
    5.7123    0.9514    0.0000 C   0  0  0  0  0  0  0  0  0  0  0  0
    8.2802   -0.0585    0.0000 C   0  0  0  0  0  0  0  0  0  0  0  0
    6.3518    2.9195    0.0000 C   0  0  0  0  0  0  0  0  0  0  0  0
    7.3991    0.4144    0.0000 C   0  0  0  0  0  0  0  0  0  0  0  0
    3.7183    2.6872    0.0000 C   0  0  0  0  0  0  0  0  0  0  0  0
    9.1807    0.3764    0.0000 C   0  0  0  0  0  0  0  0  0  0  0  0
    8.4156   -1.0492    0.0000 C   0  0  0  0  0  0  0  0  0  0  0  0
    7.6673    2.9412    0.0000 C   0  0  0  0  0  0  0  0  0  0  0  0
    3.3424    0.9514    0.0000 C   0  0  0  0  0  0  0  0  0  0  0  0
    9.8346   -2.1272    0.0000 C   0  0  0  0  0  0  0  0  0  0  0  0
    2.7029    2.9195    0.0000 C   0  0  0  0  0  0  0  0  0  0  0  0
    9.3582    1.3606    0.0000 C   0  0  0  0  0  0  0  0  0  0  0  0
    2.3219    1.1601    0.0000 C   0  0  0  0  0  0  0  0  0  0  0  0
    2.0000    2.1508    0.0000 C   0  0  0  0  0  0  0  0  0  0  0  0
   10.8319   -2.2008    0.0000 C   0  0  0  0  0  0  0  0  0  0  0  0
    9.2722   -2.9540    0.0000 C   0  0  0  0  0  0  0  0  0  0  0  0
    6.6498    3.8740    0.0000 C   0  0  0  0  0  0  0  0  0  0  0  0
   11.2668   -3.1012    0.0000 C   0  0  0  0  0  0  0  0  0  0  0  0
    9.7071   -3.8545    0.0000 C   0  0  0  0  0  0  0  0  0  0  0  0
   10.7044   -3.9281    0.0000 C   0  0  0  0  0  0  0  0  0  0  0  0
    7.2052   -0.1745    0.0000 H   0  0  0  0  0  0  0  0  0  0  0  0
   10.4869   -0.2616    0.0000 H   0  0  0  0  0  0  0  0  0  0  0  0
    8.1574    2.5613    0.0000 H   0  0  0  0  0  0  0  0  0  0  0  0
    8.0472    3.4312    0.0000 H   0  0  0  0  0  0  0  0  0  0  0  0
    7.1773    3.3210    0.0000 H   0  0  0  0  0  0  0  0  0  0  0  0
    3.5408    0.3640    0.0000 H   0  0  0  0  0  0  0  0  0  0  0  0
    2.5182    3.5113    0.0000 H   0  0  0  0  0  0  0  0  0  0  0  0
    9.9683    1.2506    0.0000 H   0  0  0  0  0  0  0  0  0  0  0  0
    9.4682    1.9707    0.0000 H   0  0  0  0  0  0  0  0  0  0  0  0
    8.7480    1.4706    0.0000 H   0  0  0  0  0  0  0  0  0  0  0  0
    1.9088    0.6978    0.0000 H   0  0  0  0  0  0  0  0  0  0  0  0
    1.3940    2.2820    0.0000 H   0  0  0  0  0  0  0  0  0  0  0  0
   11.1806   -1.6881    0.0000 H   0  0  0  0  0  0  0  0  0  0  0  0
    8.6539   -2.9084    0.0000 H   0  0  0  0  0  0  0  0  0  0  0  0
    9.3585   -4.3672    0.0000 H   0  0  0  0  0  0  0  0  0  0  0  0
  1 31  1  0  0  0  0
  2 33  1  0  0  0  0
  3 14  2  0  0  0  0
  4 20  2  0  0  0  0
  5 11  1  0  0  0  0
  5 13  1  0  0  0  0
  5 14  1  0  0  0  0
  6  7  1  0  0  0  0
  6 20  1  0  0  0  0
  6 23  1  0  0  0  0
  7 19  1  0  0  0  0
  7 35  1  0  0  0  0
  8 11  2  0  0  0  0
  8 18  1  0  0  0  0
  9 30  3  0  0  0  0
 10 12  1  0  0  0  0
 10 14  1  0  0  0  0
 10 17  2  0  0  0  0
 11 16  1  0  0  0  0
 12 16  2  0  0  0  0
 12 21  1  0  0  0  0
 13 18  1  0  0  0  0
 13 22  2  0  0  0  0
 15 17  1  0  0  0  0
 15 19  2  0  0  0  0
 15 20  1  0  0  0  0
 16 30  1  0  0  0  0
 17 34  1  0  0  0  0
 18 24  2  0  0  0  0
 19 25  1  0  0  0  0
 21 36  1  0  0  0  0
 21 37  1  0  0  0  0
 21 38  1  0  0  0  0
 22 26  1  0  0  0  0
 22 39  1  0  0  0  0
 23 28  2  0  0  0  0
 23 29  1  0  0  0  0
 24 27  1  0  0  0  0
 24 40  1  0  0  0  0
 25 41  1  0  0  0  0
 25 42  1  0  0  0  0
 25 43  1  0  0  0  0
 26 27  2  0  0  0  0
 26 44  1  0  0  0  0
 27 45  1  0  0  0  0
 28 31  1  0  0  0  0
 28 46  1  0  0  0  0
 29 32  2  0  0  0  0
 29 47  1  0  0  0  0
 31 33  2  0  0  0  0
 32 33  1  0  0  0  0
 32 48  1  0  0  0  0
M  END
> <PUBCHEM_COMPOUND_CID>
6303347

> <PUBCHEM_COMPOUND_CANONICALIZED>
1

> <PUBCHEM_CACTVS_COMPLEXITY>
1040

> <PUBCHEM_CACTVS_HBOND_ACCEPTOR>
5

> <PUBCHEM_CACTVS_HBOND_DONOR>
1

> <PUBCHEM_CACTVS_ROTATABLE_BOND>
2

> <PUBCHEM_CACTVS_SUBSKEYS>
AAADccB7sAAGAAAAAAAAAAAAAAAAAWIAAAAwYIAAAAAAAFgB9AAAHgIYAAAADAqBlyAz0LduEAC4BydydACihC0hF6AbumEwdtiI6LLBm5GUIAholQLIyecQAAAAAABAAAIAACQAAIAABAAASAAAAAAAAA==

> <PUBCHEM_IUPAC_OPENEYE_NAME>
(2E)-2-[[2-(3,4-dichlorophenyl)-5-methyl-3-oxo-1H-pyrazol-4-yl]methylene]-3-methyl-1-oxo-pyrido[1,2-a]benzimidazole-4-carbonitrile

> <PUBCHEM_IUPAC_CAS_NAME>
(2E)-2-[[2-(3,4-dichlorophenyl)-5-methyl-3-oxo-1H-pyrazol-4-yl]methylidene]-3-methyl-1-oxo-4-pyrido[1,2-a]benzimidazolecarbonitrile

> <PUBCHEM_IUPAC_NAME_MARKUP>
(2<I>E</I>)-2-[[2-(3,4-dichlorophenyl)-5-methyl-3-oxo-1<I>H</I>-pyrazol-4-yl]methylidene]-3-methyl-1-oxopyrido[1,2-a]benzimidazole-4-carbonitrile

> <PUBCHEM_IUPAC_NAME>
(2E)-2-[[2-(3,4-dichlorophenyl)-5-methyl-3-oxo-1H-pyrazol-4-yl]methylidene]-3-methyl-1-oxopyrido[1,2-a]benzimidazole-4-carbonitrile

> <PUBCHEM_IUPAC_SYSTEMATIC_NAME>
(2E)-2-[[2-(3,4-dichlorophenyl)-5-methyl-3-oxidanylidene-1H-pyrazol-4-yl]methylidene]-3-methyl-1-oxidanylidene-pyrido[1,2-a]benzimidazole-4-carbonitrile

> <PUBCHEM_IUPAC_TRADITIONAL_NAME>
(2E)-2-[[1-(3,4-dichlorophenyl)-5-keto-3-methyl-3-pyrazolin-4-yl]methylene]-1-keto-3-methyl-pyrido[1,2-a]benzimidazole-4-carbonitrile

> <PUBCHEM_IUPAC_INCHI>
InChI=1S/C24H15Cl2N5O2/c1-12-15(23(32)30-21-6-4-3-5-20(21)28-22(30)17(12)11-27)10-16-13(2)29-31(24(16)33)14-7-8-18(25)19(26)9-14/h3-10,29H,1-2H3/b15-10+

> <PUBCHEM_IUPAC_INCHIKEY>
PSCYHVIBVPGAHI-XNTDXEJSSA-N

> <PUBCHEM_XLOGP3_AA>
4.5

> <PUBCHEM_EXACT_MASS>
475.0602801

> <PUBCHEM_MOLECULAR_FORMULA>
C24H15Cl2N5O2

> <PUBCHEM_MOLECULAR_WEIGHT>
476.3

> <PUBCHEM_SMILES>
CC\1=C(C2=NC3=CC=CC=C3N2C(=O)/C1=C/C4=C(NN(C4=O)C5=CC(=C(C=C5)Cl)Cl)C)C#N

> <PUBCHEM_OPENEYE_CAN_SMILES>
CC1=C(C2=NC3=CC=CC=C3N2C(=O)C1=CC4=C(NN(C4=O)C5=CC(=C(C=C5)Cl)Cl)C)C#N

> <PUBCHEM_OPENEYE_ISO_SMILES>
CC\1=C(C2=NC3=CC=CC=C3N2C(=O)/C1=C/C4=C(NN(C4=O)C5=CC(=C(C=C5)Cl)Cl)C)C#N

> <PUBCHEM_CACTVS_TPSA>
91

> <PUBCHEM_MONOISOTOPIC_WEIGHT>
475.0602801

> <PUBCHEM_TOTAL_CHARGE>
0

> <PUBCHEM_HEAVY_ATOM_COUNT>
33

> <PUBCHEM_ATOM_DEF_STEREO_COUNT>
0

> <PUBCHEM_ATOM_UDEF_STEREO_COUNT>
0

> <PUBCHEM_BOND_DEF_STEREO_COUNT>
1

> <PUBCHEM_BOND_UDEF_STEREO_COUNT>
0

> <PUBCHEM_ISOTOPIC_ATOM_COUNT>
0

> <PUBCHEM_COMPONENT_COUNT>
1

> <PUBCHEM_CACTVS_TAUTO_COUNT>
-1

> <PUBCHEM_COORDINATE_TYPE>
1
5
255

> <PUBCHEM_BONDANNOTATIONS>
10  12  8
10  14  8
11  16  8
12  16  8
13  18  8
13  22  8
15  19  8
15  20  8
18  24  8
22  26  8
23  28  8
23  29  8
24  27  8
26  27  8
28  31  8
29  32  8
31  33  8
32  33  8
5  11  8
5  13  8
5  14  8
6  20  8
6  7  8
7  19  8
8  11  8
8  18  8

$$$$
