46207586
  -OEChem-03202502082D

 56 60  0     0  0  0  0  0  0999 V2000
    4.6783   -1.0496    0.0000 S   0  0  0  0  0  0  0  0  0  0  0  0
   10.5028    4.4425    0.0000 F   0  0  0  0  0  0  0  0  0  0  0  0
    4.1349   -6.3153    0.0000 O   0  0  0  0  0  0  0  0  0  0  0  0
    7.5673    3.8239    0.0000 O   0  0  0  0  0  0  0  0  0  0  0  0
    3.3660   -3.7837    0.0000 N   0  0  0  0  0  0  0  0  0  0  0  0
    2.0000    0.2552    0.0000 N   0  0  0  0  0  0  0  0  0  0  0  0
    2.3660   -3.7837    0.0000 N   0  0  0  0  0  0  0  0  0  0  0  0
    2.8660    1.7552    0.0000 N   0  0  0  0  0  0  0  0  0  0  0  0
    5.9209    4.3620    0.0000 N   0  0  0  0  0  0  0  0  0  0  0  0
    7.2101    5.5187    0.0000 N   0  0  0  0  0  0  0  0  0  0  0  0
    3.7320    0.2552    0.0000 C   0  0  0  0  0  0  0  0  0  0  0  0
    3.7320   -0.7448    0.0000 C   0  0  0  0  0  0  0  0  0  0  0  0
    4.6783    0.5599    0.0000 C   0  0  0  0  0  0  0  0  0  0  0  0
    2.8660   -1.2448    0.0000 C   0  0  0  0  0  0  0  0  0  0  0  0
    2.8660   -2.2448    0.0000 C   0  0  0  0  0  0  0  0  0  0  0  0
    4.9889    1.5104    0.0000 C   0  0  0  0  0  0  0  0  0  0  0  0
    2.8660    0.7552    0.0000 C   0  0  0  0  0  0  0  0  0  0  0  0
    5.2619   -0.2448    0.0000 C   0  0  0  0  0  0  0  0  0  0  0  0
    2.0000   -0.7448    0.0000 C   0  0  0  0  0  0  0  0  0  0  0  0
    3.6750   -2.8326    0.0000 C   0  0  0  0  0  0  0  0  0  0  0  0
    2.0570   -2.8326    0.0000 C   0  0  0  0  0  0  0  0  0  0  0  0
    3.9538   -4.5927    0.0000 C   0  0  0  0  0  0  0  0  0  0  0  0
    4.3211    2.2547    0.0000 C   0  0  0  0  0  0  0  0  0  0  0  0
    5.9674    1.7166    0.0000 C   0  0  0  0  0  0  0  0  0  0  0  0
    5.6103    3.4114    0.0000 C   0  0  0  0  0  0  0  0  0  0  0  0
    4.6318    3.2052    0.0000 C   0  0  0  0  0  0  0  0  0  0  0  0
    6.2781    2.6672    0.0000 C   0  0  0  0  0  0  0  0  0  0  0  0
    3.5471   -5.5062    0.0000 C   0  0  0  0  0  0  0  0  0  0  0  0
    6.8994    4.5682    0.0000 C   0  0  0  0  0  0  0  0  0  0  0  0
    8.1886    5.7249    0.0000 C   0  0  0  0  0  0  0  0  0  0  0  0
    8.8564    4.9806    0.0000 C   0  0  0  0  0  0  0  0  0  0  0  0
    8.4993    6.6754    0.0000 C   0  0  0  0  0  0  0  0  0  0  0  0
    9.8349    5.1868    0.0000 C   0  0  0  0  0  0  0  0  0  0  0  0
    9.4778    6.8817    0.0000 C   0  0  0  0  0  0  0  0  0  0  0  0
   10.1456    6.1374    0.0000 C   0  0  0  0  0  0  0  0  0  0  0  0
    5.8819   -0.2448    0.0000 H   0  0  0  0  0  0  0  0  0  0  0  0
    1.4631   -1.0548    0.0000 H   0  0  0  0  0  0  0  0  0  0  0  0
    4.2647   -2.6410    0.0000 H   0  0  0  0  0  0  0  0  0  0  0  0
    1.4674   -2.6410    0.0000 H   0  0  0  0  0  0  0  0  0  0  0  0
    4.4678   -4.9394    0.0000 H   0  0  0  0  0  0  0  0  0  0  0  0
    4.3845   -4.1467    0.0000 H   0  0  0  0  0  0  0  0  0  0  0  0
    3.7144    2.1268    0.0000 H   0  0  0  0  0  0  0  0  0  0  0  0
    6.3815    1.2552    0.0000 H   0  0  0  0  0  0  0  0  0  0  0  0
    4.2177    3.6667    0.0000 H   0  0  0  0  0  0  0  0  0  0  0  0
    6.8848    2.7950    0.0000 H   0  0  0  0  0  0  0  0  0  0  0  0
    2.3291    2.0652    0.0000 H   0  0  0  0  0  0  0  0  0  0  0  0
    3.4030    2.0652    0.0000 H   0  0  0  0  0  0  0  0  0  0  0  0
    3.0331   -5.1596    0.0000 H   0  0  0  0  0  0  0  0  0  0  0  0
    3.1164   -5.9522    0.0000 H   0  0  0  0  0  0  0  0  0  0  0  0
    5.5069    4.8234    0.0000 H   0  0  0  0  0  0  0  0  0  0  0  0
    3.8827   -6.8817    0.0000 H   0  0  0  0  0  0  0  0  0  0  0  0
    6.7960    5.9802    0.0000 H   0  0  0  0  0  0  0  0  0  0  0  0
    8.6638    4.3913    0.0000 H   0  0  0  0  0  0  0  0  0  0  0  0
    8.0852    7.1369    0.0000 H   0  0  0  0  0  0  0  0  0  0  0  0
    9.6704    7.4710    0.0000 H   0  0  0  0  0  0  0  0  0  0  0  0
   10.7523    6.2652    0.0000 H   0  0  0  0  0  0  0  0  0  0  0  0
  1 12  1  0  0  0  0
  1 18  1  0  0  0  0
  2 33  1  0  0  0  0
  3 28  1  0  0  0  0
  3 51  1  0  0  0  0
  4 29  2  0  0  0  0
  5  7  1  0  0  0  0
  5 20  1  0  0  0  0
  5 22  1  0  0  0  0
  6 17  2  0  0  0  0
  6 19  1  0  0  0  0
  7 21  2  0  0  0  0
  8 17  1  0  0  0  0
  8 46  1  0  0  0  0
  8 47  1  0  0  0  0
  9 25  1  0  0  0  0
  9 29  1  0  0  0  0
  9 50  1  0  0  0  0
 10 29  1  0  0  0  0
 10 30  1  0  0  0  0
 10 52  1  0  0  0  0
 11 12  2  0  0  0  0
 11 13  1  0  0  0  0
 11 17  1  0  0  0  0
 12 14  1  0  0  0  0
 13 16  1  0  0  0  0
 13 18  2  0  0  0  0
 14 15  1  0  0  0  0
 14 19  2  0  0  0  0
 15 20  2  0  0  0  0
 15 21  1  0  0  0  0
 16 23  2  0  0  0  0
 16 24  1  0  0  0  0
 18 36  1  0  0  0  0
 19 37  1  0  0  0  0
 20 38  1  0  0  0  0
 21 39  1  0  0  0  0
 22 28  1  0  0  0  0
 22 40  1  0  0  0  0
 22 41  1  0  0  0  0
 23 26  1  0  0  0  0
 23 42  1  0  0  0  0
 24 27  2  0  0  0  0
 24 43  1  0  0  0  0
 25 26  2  0  0  0  0
 25 27  1  0  0  0  0
 26 44  1  0  0  0  0
 27 45  1  0  0  0  0
 28 48  1  0  0  0  0
 28 49  1  0  0  0  0
 30 31  2  0  0  0  0
 30 32  1  0  0  0  0
 31 33  1  0  0  0  0
 31 53  1  0  0  0  0
 32 34  2  0  0  0  0
 32 54  1  0  0  0  0
 33 35  2  0  0  0  0
 34 35  1  0  0  0  0
 34 55  1  0  0  0  0
 35 56  1  0  0  0  0
M  END
> <PUBCHEM_COMPOUND_CID>
46207586

> <PUBCHEM_COMPOUND_CANONICALIZED>
1

> <PUBCHEM_CACTVS_COMPLEXITY>
713

> <PUBCHEM_CACTVS_HBOND_ACCEPTOR>
7

> <PUBCHEM_CACTVS_HBOND_DONOR>
4

> <PUBCHEM_CACTVS_ROTATABLE_BOND>
6

> <PUBCHEM_CACTVS_SUBSKEYS>
AAADceB7sQBAAAAAAAAAAAAAAAAAAWJAAAA8YIAAAAAAAFgB/gAAHwQYCAAADAjl2g698dLIEgiuAjZndACThKkxijAY2DAoZJiKMOLg0dGEpAxonAL4yCcQgMAOiAAAAAAAAAAQAAAAAAAAAAAAAAAAAA==

> <PUBCHEM_IUPAC_OPENEYE_NAME>
1-[4-[4-amino-7-[1-(2-hydroxyethyl)pyrazol-4-yl]thieno[3,2-c]pyridin-3-yl]phenyl]-3-(3-fluorophenyl)urea

> <PUBCHEM_IUPAC_CAS_NAME>
1-[4-[4-amino-7-[1-(2-hydroxyethyl)-4-pyrazolyl]-3-thieno[3,2-c]pyridinyl]phenyl]-3-(3-fluorophenyl)urea

> <PUBCHEM_IUPAC_NAME_MARKUP>
1-[4-[4-amino-7-[1-(2-hydroxyethyl)pyrazol-4-yl]thieno[3,2-c]pyridin-3-yl]phenyl]-3-(3-fluorophenyl)urea

> <PUBCHEM_IUPAC_NAME>
1-[4-[4-amino-7-[1-(2-hydroxyethyl)pyrazol-4-yl]thieno[3,2-c]pyridin-3-yl]phenyl]-3-(3-fluorophenyl)urea

> <PUBCHEM_IUPAC_SYSTEMATIC_NAME>
1-[4-[4-azanyl-7-[1-(2-hydroxyethyl)pyrazol-4-yl]thieno[3,2-c]pyridin-3-yl]phenyl]-3-(3-fluorophenyl)urea

> <PUBCHEM_IUPAC_TRADITIONAL_NAME>
1-[4-[4-amino-7-[1-(2-hydroxyethyl)pyrazol-4-yl]thieno[3,2-c]pyridin-3-yl]phenyl]-3-(3-fluorophenyl)urea

> <PUBCHEM_IUPAC_INCHI>
InChI=1S/C25H21FN6O2S/c26-17-2-1-3-19(10-17)31-25(34)30-18-6-4-15(5-7-18)21-14-35-23-20(12-28-24(27)22(21)23)16-11-29-32(13-16)8-9-33/h1-7,10-14,33H,8-9H2,(H2,27,28)(H2,30,31,34)

> <PUBCHEM_IUPAC_INCHIKEY>
WPHKIQPVPYJNAX-UHFFFAOYSA-N

> <PUBCHEM_XLOGP3_AA>
3

> <PUBCHEM_EXACT_MASS>
488.14307327

> <PUBCHEM_MOLECULAR_FORMULA>
C25H21FN6O2S

> <PUBCHEM_MOLECULAR_WEIGHT>
488.5

> <PUBCHEM_SMILES>
C1=CC(=CC(=C1)F)NC(=O)NC2=CC=C(C=C2)C3=CSC4=C3C(=NC=C4C5=CN(N=C5)CCO)N

> <PUBCHEM_OPENEYE_CAN_SMILES>
C1=CC(=CC(=C1)F)NC(=O)NC2=CC=C(C=C2)C3=CSC4=C3C(=NC=C4C5=CN(N=C5)CCO)N

> <PUBCHEM_OPENEYE_ISO_SMILES>
C1=CC(=CC(=C1)F)NC(=O)NC2=CC=C(C=C2)C3=CSC4=C3C(=NC=C4C5=CN(N=C5)CCO)N

> <PUBCHEM_CACTVS_TPSA>
146

> <PUBCHEM_MONOISOTOPIC_WEIGHT>
488.14307327

> <PUBCHEM_TOTAL_CHARGE>
0

> <PUBCHEM_HEAVY_ATOM_COUNT>
35

> <PUBCHEM_ATOM_DEF_STEREO_COUNT>
0

> <PUBCHEM_ATOM_UDEF_STEREO_COUNT>
0

> <PUBCHEM_BOND_DEF_STEREO_COUNT>
0

> <PUBCHEM_BOND_UDEF_STEREO_COUNT>
0

> <PUBCHEM_ISOTOPIC_ATOM_COUNT>
0

> <PUBCHEM_COMPONENT_COUNT>
1

> <PUBCHEM_CACTVS_TAUTO_COUNT>
-1

> <PUBCHEM_COORDINATE_TYPE>
1
5
255

> <PUBCHEM_BONDANNOTATIONS>
1  12  8
1  18  8
11  12  8
11  13  8
11  17  8
12  14  8
13  18  8
14  19  8
15  20  8
15  21  8
16  23  8
16  24  8
23  26  8
24  27  8
25  26  8
25  27  8
30  31  8
30  32  8
31  33  8
32  34  8
33  35  8
34  35  8
5  20  8
5  7  8
6  17  8
6  19  8
7  21  8

$$$$
