25165086
  -OEChem-03202504142D

 43 47  0     0  0  0  0  0  0999 V2000
    5.1646    0.1517    0.0000 N   0  0  0  0  0  0  0  0  0  0  0  0
    5.6646    1.0177    0.0000 N   0  0  0  0  0  0  0  0  0  0  0  0
    6.6428    0.8098    0.0000 N   0  0  0  0  0  0  0  0  0  0  0  0
   10.2916   -1.9894    0.0000 N   0  0  0  0  0  0  0  0  0  0  0  0
   10.8752   -1.1847    0.0000 N   0  0  0  0  0  0  0  0  0  0  0  0
   10.6022    0.5706    0.0000 N   0  0  0  0  0  0  0  0  0  0  0  0
    5.6258   -1.5696    0.0000 C   0  0  0  0  0  0  0  0  0  0  0  0
    4.9567   -2.3127    0.0000 C   0  0  0  0  0  0  0  0  0  0  0  0
    5.9348   -2.5206    0.0000 C   0  0  0  0  0  0  0  0  0  0  0  0
    5.8338   -0.5914    0.0000 C   0  0  0  0  0  0  0  0  0  0  0  0
    6.7473   -0.1847    0.0000 C   0  0  0  0  0  0  0  0  0  0  0  0
    4.1701    0.0472    0.0000 C   0  0  0  0  0  0  0  0  0  0  0  0
    7.6133   -0.6847    0.0000 C   0  0  0  0  0  0  0  0  0  0  0  0
    3.5823    0.8562    0.0000 C   0  0  0  0  0  0  0  0  0  0  0  0
    8.4793   -0.1847    0.0000 C   0  0  0  0  0  0  0  0  0  0  0  0
    7.6133   -1.6847    0.0000 C   0  0  0  0  0  0  0  0  0  0  0  0
    9.3454   -0.6847    0.0000 C   0  0  0  0  0  0  0  0  0  0  0  0
    9.3454   -1.6847    0.0000 C   0  0  0  0  0  0  0  0  0  0  0  0
    8.4793   -2.1847    0.0000 C   0  0  0  0  0  0  0  0  0  0  0  0
    3.9890    1.7697    0.0000 C   0  0  0  0  0  0  0  0  0  0  0  0
    2.5878    0.7517    0.0000 C   0  0  0  0  0  0  0  0  0  0  0  0
   10.2916   -0.3800    0.0000 C   0  0  0  0  0  0  0  0  0  0  0  0
    3.4013    2.5788    0.0000 C   0  0  0  0  0  0  0  0  0  0  0  0
    2.0000    1.5607    0.0000 C   0  0  0  0  0  0  0  0  0  0  0  0
    2.4067    2.4742    0.0000 C   0  0  0  0  0  0  0  0  0  0  0  0
    5.0734   -1.2881    0.0000 H   0  0  0  0  0  0  0  0  0  0  0  0
    4.4309   -1.9842    0.0000 H   0  0  0  0  0  0  0  0  0  0  0  0
    4.7244   -2.8876    0.0000 H   0  0  0  0  0  0  0  0  0  0  0  0
    5.9132   -3.1403    0.0000 H   0  0  0  0  0  0  0  0  0  0  0  0
    6.5488   -2.4344    0.0000 H   0  0  0  0  0  0  0  0  0  0  0  0
    3.6128   -0.2246    0.0000 H   0  0  0  0  0  0  0  0  0  0  0  0
    4.3410   -0.5488    0.0000 H   0  0  0  0  0  0  0  0  0  0  0  0
    8.4793    0.4353    0.0000 H   0  0  0  0  0  0  0  0  0  0  0  0
    7.0764   -1.9947    0.0000 H   0  0  0  0  0  0  0  0  0  0  0  0
    8.4793   -2.8047    0.0000 H   0  0  0  0  0  0  0  0  0  0  0  0
    4.6056    1.8346    0.0000 H   0  0  0  0  0  0  0  0  0  0  0  0
    2.3356    0.1853    0.0000 H   0  0  0  0  0  0  0  0  0  0  0  0
   10.4842   -2.5788    0.0000 H   0  0  0  0  0  0  0  0  0  0  0  0
    3.6534    3.1452    0.0000 H   0  0  0  0  0  0  0  0  0  0  0  0
    1.3834    1.4959    0.0000 H   0  0  0  0  0  0  0  0  0  0  0  0
    2.0423    2.9758    0.0000 H   0  0  0  0  0  0  0  0  0  0  0  0
   11.2089    0.6984    0.0000 H   0  0  0  0  0  0  0  0  0  0  0  0
   10.1882    1.0320    0.0000 H   0  0  0  0  0  0  0  0  0  0  0  0
  1  2  1  0  0  0  0
  1 10  1  0  0  0  0
  1 12  1  0  0  0  0
  2  3  2  0  0  0  0
  3 11  1  0  0  0  0
  4  5  1  0  0  0  0
  4 18  1  0  0  0  0
  4 38  1  0  0  0  0
  5 22  2  0  0  0  0
  6 22  1  0  0  0  0
  6 42  1  0  0  0  0
  6 43  1  0  0  0  0
  7  8  1  0  0  0  0
  7  9  1  0  0  0  0
  7 10  1  0  0  0  0
  7 26  1  0  0  0  0
  8  9  1  0  0  0  0
  8 27  1  0  0  0  0
  8 28  1  0  0  0  0
  9 29  1  0  0  0  0
  9 30  1  0  0  0  0
 10 11  2  0  0  0  0
 11 13  1  0  0  0  0
 12 14  1  0  0  0  0
 12 31  1  0  0  0  0
 12 32  1  0  0  0  0
 13 15  2  0  0  0  0
 13 16  1  0  0  0  0
 14 20  2  0  0  0  0
 14 21  1  0  0  0  0
 15 17  1  0  0  0  0
 15 33  1  0  0  0  0
 16 19  2  0  0  0  0
 16 34  1  0  0  0  0
 17 18  2  0  0  0  0
 17 22  1  0  0  0  0
 18 19  1  0  0  0  0
 19 35  1  0  0  0  0
 20 23  1  0  0  0  0
 20 36  1  0  0  0  0
 21 24  2  0  0  0  0
 21 37  1  0  0  0  0
 23 25  2  0  0  0  0
 23 39  1  0  0  0  0
 24 25  1  0  0  0  0
 24 40  1  0  0  0  0
 25 41  1  0  0  0  0
M  END
> <PUBCHEM_COMPOUND_CID>
25165086

> <PUBCHEM_COMPOUND_CANONICALIZED>
1

> <PUBCHEM_CACTVS_COMPLEXITY>
463

> <PUBCHEM_CACTVS_HBOND_ACCEPTOR>
4

> <PUBCHEM_CACTVS_HBOND_DONOR>
2

> <PUBCHEM_CACTVS_ROTATABLE_BOND>
4

> <PUBCHEM_CACTVS_SUBSKEYS>
AAADceB7gAAAAAAAAAAAAAAAGAAAAWLAAAAwYAAAAAAAAFgB/AAAHAAYAAAADQjBHgQx8PJrAACiAyZiZACSBAYhkgAc+SA4dJgIYKLA0dGUpAhwmADIyAcQgMAOCAACAAACAAAQAAQAAAQAAAAAAAAAAA==

> <PUBCHEM_IUPAC_OPENEYE_NAME>
5-(1-benzyl-5-cyclopropyl-triazol-4-yl)-1H-indazol-3-amine

> <PUBCHEM_IUPAC_CAS_NAME>
5-[5-cyclopropyl-1-(phenylmethyl)-4-triazolyl]-1H-indazol-3-amine

> <PUBCHEM_IUPAC_NAME_MARKUP>
5-(1-benzyl-5-cyclopropyltriazol-4-yl)-1<I>H</I>-indazol-3-amine

> <PUBCHEM_IUPAC_NAME>
5-(1-benzyl-5-cyclopropyltriazol-4-yl)-1H-indazol-3-amine

> <PUBCHEM_IUPAC_SYSTEMATIC_NAME>
5-[5-cyclopropyl-1-(phenylmethyl)-1,2,3-triazol-4-yl]-1H-indazol-3-amine

> <PUBCHEM_IUPAC_TRADITIONAL_NAME>
[5-(1-benzyl-5-cyclopropyl-triazol-4-yl)-1H-indazol-3-yl]amine

> <PUBCHEM_IUPAC_INCHI>
InChI=1S/C19H18N6/c20-19-15-10-14(8-9-16(15)21-23-19)17-18(13-6-7-13)25(24-22-17)11-12-4-2-1-3-5-12/h1-5,8-10,13H,6-7,11H2,(H3,20,21,23)

> <PUBCHEM_IUPAC_INCHIKEY>
UOOFSEUSROQBBP-UHFFFAOYSA-N

> <PUBCHEM_XLOGP3_AA>
2.8

> <PUBCHEM_EXACT_MASS>
330.15929460

> <PUBCHEM_MOLECULAR_FORMULA>
C19H18N6

> <PUBCHEM_MOLECULAR_WEIGHT>
330.4

> <PUBCHEM_SMILES>
C1CC1C2=C(N=NN2CC3=CC=CC=C3)C4=CC5=C(C=C4)NN=C5N

> <PUBCHEM_OPENEYE_CAN_SMILES>
C1CC1C2=C(N=NN2CC3=CC=CC=C3)C4=CC5=C(C=C4)NN=C5N

> <PUBCHEM_OPENEYE_ISO_SMILES>
C1CC1C2=C(N=NN2CC3=CC=CC=C3)C4=CC5=C(C=C4)NN=C5N

> <PUBCHEM_CACTVS_TPSA>
85.4

> <PUBCHEM_MONOISOTOPIC_WEIGHT>
330.15929460

> <PUBCHEM_TOTAL_CHARGE>
0

> <PUBCHEM_HEAVY_ATOM_COUNT>
25

> <PUBCHEM_ATOM_DEF_STEREO_COUNT>
0

> <PUBCHEM_ATOM_UDEF_STEREO_COUNT>
0

> <PUBCHEM_BOND_DEF_STEREO_COUNT>
0

> <PUBCHEM_BOND_UDEF_STEREO_COUNT>
0

> <PUBCHEM_ISOTOPIC_ATOM_COUNT>
0

> <PUBCHEM_COMPONENT_COUNT>
1

> <PUBCHEM_CACTVS_TAUTO_COUNT>
-1

> <PUBCHEM_COORDINATE_TYPE>
1
5
255

> <PUBCHEM_BONDANNOTATIONS>
1  10  8
1  2  8
10  11  8
13  15  8
13  16  8
14  20  8
14  21  8
15  17  8
16  19  8
17  18  8
17  22  8
18  19  8
2  3  8
20  23  8
21  24  8
23  25  8
24  25  8
3  11  8
4  18  8
4  5  8
5  22  8

$$$$
