44353130
  -OEChem-03202505392D

 71 78  0     1  0  0  0  0  0999 V2000
    7.5253    2.3172    0.0000 O   0  0  0  0  0  0  0  0  0  0  0  0
    9.3271   -1.4246    0.0000 O   0  0  0  0  0  0  0  0  0  0  0  0
    2.2501    0.6180    0.0000 O   0  0  0  0  0  0  0  0  0  0  0  0
   11.0179   -0.0555    0.0000 N   0  3  0  0  0  0  0  0  0  0  0  0
    6.9273   -0.6474    0.0000 N   0  0  0  0  0  0  0  0  0  0  0  0
    6.2433    1.2320    0.0000 N   0  0  0  0  0  0  0  0  0  0  0  0
    2.5826   -1.1645    0.0000 N   0  0  0  0  0  0  0  0  0  0  0  0
   10.0519    0.2034    0.0000 C   0  0  2  0  0  0  0  0  0  0  0  0
    8.0031    0.3687    0.0000 C   0  0  1  0  0  0  0  0  0  0  0  0
    9.2748   -0.4260    0.0000 C   0  0  1  0  0  0  0  0  0  0  0  0
    9.6936    1.1369    0.0000 C   0  0  0  0  0  0  0  0  0  0  0  0
    8.2619    1.3346    0.0000 C   0  0  2  0  0  0  0  0  0  0  0  0
    5.9425   -0.4737    0.0000 C   0  0  0  0  0  0  0  0  0  0  0  0
    5.6005    0.4660    0.0000 C   0  0  0  0  0  0  0  0  0  0  0  0
    7.7443   -0.5972    0.0000 C   0  0  0  0  0  0  0  0  0  0  0  0
   11.9838   -0.3143    0.0000 C   0  0  0  0  0  0  0  0  0  0  0  0
    5.2853   -1.2819    0.0000 C   0  0  0  0  0  0  0  0  0  0  0  0
    6.9003   -1.6408    0.0000 C   0  0  0  0  0  0  0  0  0  0  0  0
    4.5776    0.6626    0.0000 C   0  0  0  0  0  0  0  0  0  0  0  0
   11.2767    0.9105    0.0000 C   0  0  0  0  0  0  0  0  0  0  0  0
   10.7590   -1.0214    0.0000 C   0  0  0  0  0  0  0  0  0  0  0  0
    5.5840    1.9757    0.0000 C   0  0  0  0  0  0  0  0  0  0  0  0
    5.9733   -1.9990    0.0000 C   0  0  0  0  0  0  0  0  0  0  0  0
    4.2582   -1.1089    0.0000 C   0  0  0  0  0  0  0  0  0  0  0  0
    4.6436    1.6543    0.0000 C   0  0  0  0  0  0  0  0  0  0  0  0
    3.9019   -0.1301    0.0000 C   0  0  0  0  0  0  0  0  0  0  0  0
   12.6909    0.3928    0.0000 C   0  0  0  0  0  0  0  0  0  0  0  0
    3.4406   -1.7443    0.0000 C   0  0  0  0  0  0  0  0  0  0  0  0
    7.7162   -2.2780    0.0000 C   0  0  0  0  0  0  0  0  0  0  0  0
    5.7995    2.9882    0.0000 C   0  0  0  0  0  0  0  0  0  0  0  0
    2.8672   -0.1689    0.0000 C   0  0  0  0  0  0  0  0  0  0  0  0
    5.7979   -3.0193    0.0000 C   0  0  0  0  0  0  0  0  0  0  0  0
   10.2181   -1.8786    0.0000 C   0  0  0  0  0  0  0  0  0  0  0  0
    3.8535    2.3231    0.0000 C   0  0  0  0  0  0  0  0  0  0  0  0
    7.5644   -3.3020    0.0000 C   0  0  0  0  0  0  0  0  0  0  0  0
    6.5988   -3.6751    0.0000 C   0  0  0  0  0  0  0  0  0  0  0  0
    5.0250    3.6751    0.0000 C   0  0  0  0  0  0  0  0  0  0  0  0
    4.0454    3.3403    0.0000 C   0  0  0  0  0  0  0  0  0  0  0  0
   10.4668    0.6641    0.0000 H   0  0  0  0  0  0  0  0  0  0  0  0
    9.8412   -0.6781    0.0000 H   0  0  0  0  0  0  0  0  0  0  0  0
   10.3014    1.2593    0.0000 H   0  0  0  0  0  0  0  0  0  0  0  0
    9.6745    1.7566    0.0000 H   0  0  0  0  0  0  0  0  0  0  0  0
    8.4819    2.1556    0.0000 H   0  0  0  0  0  0  0  0  0  0  0  0
    7.1454   -0.4368    0.0000 H   0  0  0  0  0  0  0  0  0  0  0  0
    7.5838   -1.1961    0.0000 H   0  0  0  0  0  0  0  0  0  0  0  0
    8.3432   -0.7577    0.0000 H   0  0  0  0  0  0  0  0  0  0  0  0
   11.7218   -0.8762    0.0000 H   0  0  0  0  0  0  0  0  0  0  0  0
   12.4917   -0.6699    0.0000 H   0  0  0  0  0  0  0  0  0  0  0  0
   11.8755    0.7500    0.0000 H   0  0  0  0  0  0  0  0  0  0  0  0
   11.4371    1.5093    0.0000 H   0  0  0  0  0  0  0  0  0  0  0  0
   10.6778    1.0709    0.0000 H   0  0  0  0  0  0  0  0  0  0  0  0
   10.1602   -0.8609    0.0000 H   0  0  0  0  0  0  0  0  0  0  0  0
   10.5986   -1.6203    0.0000 H   0  0  0  0  0  0  0  0  0  0  0  0
   11.3579   -1.1818    0.0000 H   0  0  0  0  0  0  0  0  0  0  0  0
   13.1293   -0.0456    0.0000 H   0  0  0  0  0  0  0  0  0  0  0  0
   13.1293    0.8312    0.0000 H   0  0  0  0  0  0  0  0  0  0  0  0
   12.2525    0.8312    0.0000 H   0  0  0  0  0  0  0  0  0  0  0  0
    3.0413   -2.2187    0.0000 H   0  0  0  0  0  0  0  0  0  0  0  0
    3.8703   -2.1912    0.0000 H   0  0  0  0  0  0  0  0  0  0  0  0
    8.2919   -2.0478    0.0000 H   0  0  0  0  0  0  0  0  0  0  0  0
    6.3884    3.1820    0.0000 H   0  0  0  0  0  0  0  0  0  0  0  0
    5.2171   -3.2360    0.0000 H   0  0  0  0  0  0  0  0  0  0  0  0
    9.9366   -2.4310    0.0000 H   0  0  0  0  0  0  0  0  0  0  0  0
   10.7705   -2.1600    0.0000 H   0  0  0  0  0  0  0  0  0  0  0  0
   10.4996   -1.3262    0.0000 H   0  0  0  0  0  0  0  0  0  0  0  0
    3.2692    2.1157    0.0000 H   0  0  0  0  0  0  0  0  0  0  0  0
    2.0000   -1.3766    0.0000 H   0  0  0  0  0  0  0  0  0  0  0  0
    8.0486   -3.6892    0.0000 H   0  0  0  0  0  0  0  0  0  0  0  0
    6.5009   -4.2873    0.0000 H   0  0  0  0  0  0  0  0  0  0  0  0
    5.1470    4.2830    0.0000 H   0  0  0  0  0  0  0  0  0  0  0  0
    3.5769    3.7463    0.0000 H   0  0  0  0  0  0  0  0  0  0  0  0
  1  9  1  0  0  0  0
  1 12  1  0  0  0  0
 10  2  1  6  0  0  0
  2 33  1  0  0  0  0
  3 31  2  0  0  0  0
  8  4  1  6  0  0  0
  4 16  1  0  0  0  0
  4 20  1  0  0  0  0
  4 21  1  0  0  0  0
  5  9  1  0  0  0  0
  5 13  1  0  0  0  0
  5 18  1  0  0  0  0
  6 12  1  0  0  0  0
  6 14  1  0  0  0  0
  6 22  1  0  0  0  0
  7 28  1  0  0  0  0
  7 31  1  0  0  0  0
  7 67  1  0  0  0  0
  8 10  1  0  0  0  0
  8 11  1  0  0  0  0
  8 39  1  0  0  0  0
  9 10  1  0  0  0  0
  9 15  1  1  0  0  0
 10 40  1  0  0  0  0
 11 12  1  0  0  0  0
 11 41  1  0  0  0  0
 11 42  1  0  0  0  0
 12 43  1  6  0  0  0
 13 14  2  0  0  0  0
 13 17  1  0  0  0  0
 14 19  1  0  0  0  0
 15 44  1  0  0  0  0
 15 45  1  0  0  0  0
 15 46  1  0  0  0  0
 16 27  1  0  0  0  0
 16 47  1  0  0  0  0
 16 48  1  0  0  0  0
 17 23  1  0  0  0  0
 17 24  2  0  0  0  0
 18 23  1  0  0  0  0
 18 29  2  0  0  0  0
 19 25  1  0  0  0  0
 19 26  2  0  0  0  0
 20 49  1  0  0  0  0
 20 50  1  0  0  0  0
 20 51  1  0  0  0  0
 21 52  1  0  0  0  0
 21 53  1  0  0  0  0
 21 54  1  0  0  0  0
 22 25  1  0  0  0  0
 22 30  2  0  0  0  0
 23 32  2  0  0  0  0
 24 26  1  0  0  0  0
 24 28  1  0  0  0  0
 25 34  2  0  0  0  0
 26 31  1  0  0  0  0
 27 55  1  0  0  0  0
 27 56  1  0  0  0  0
 27 57  1  0  0  0  0
 28 58  1  0  0  0  0
 28 59  1  0  0  0  0
 29 35  1  0  0  0  0
 29 60  1  0  0  0  0
 30 37  1  0  0  0  0
 30 61  1  0  0  0  0
 32 36  1  0  0  0  0
 32 62  1  0  0  0  0
 33 63  1  0  0  0  0
 33 64  1  0  0  0  0
 33 65  1  0  0  0  0
 34 38  1  0  0  0  0
 34 66  1  0  0  0  0
 35 36  2  0  0  0  0
 35 68  1  0  0  0  0
 36 69  1  0  0  0  0
 37 38  2  0  0  0  0
 37 70  1  0  0  0  0
 38 71  1  0  0  0  0
M  CHG  1   4   1
M  END
> <PUBCHEM_COMPOUND_CID>
44353130

> <PUBCHEM_COMPOUND_CANONICALIZED>
1

> <PUBCHEM_CACTVS_COMPLEXITY>
990

> <PUBCHEM_CACTVS_HBOND_ACCEPTOR>
3

> <PUBCHEM_CACTVS_HBOND_DONOR>
1

> <PUBCHEM_CACTVS_ROTATABLE_BOND>
3

> <PUBCHEM_CACTVS_SUBSKEYS>
AAADcfB7sAAAAAAAAAAAAAAAAAAAAWLFgAA0YMEABYAAAFix/gAAHgAQAAAADDzhngYywPPMFACoAyVyVACCgCQlEiAI2KE4dNgLYPLA1ZGfIQhmhgDayQf82cOeyAACQAASACCQAASAACQAQAAAAAAAAA==

> <PUBCHEM_IUPAC_OPENEYE_NAME>
ethyl-[(2R,3S,4S,6S)-3-methoxy-2-methyl-16-oxo-29-oxa-1,7,17-triazaoctacyclo[12.12.2.12,6.07,28.08,13.015,19.020,27.021,26]nonacosa-8,10,12,14,19,21,23,25,27-nonaen-4-yl]-dimethyl-ammonium

> <PUBCHEM_IUPAC_CAS_NAME>
ethyl-[(2R,3S,4S,6S)-3-methoxy-2-methyl-16-oxo-29-oxa-1,7,17-triazaoctacyclo[12.12.2.12,6.07,28.08,13.015,19.020,27.021,26]nonacosa-8,10,12,14,19,21,23,25,27-nonaen-4-yl]-dimethylammonium

> <PUBCHEM_IUPAC_NAME_MARKUP>
ethyl-[(2<I>R</I>,3<I>S</I>,4<I>S</I>,6<I>S</I>)-3-methoxy-2-methyl-16-oxo-29-oxa-1,7,17-triazaoctacyclo[12.12.2.1<SUP>2,6</SUP>.0<SUP>7,28</SUP>.0<SUP>8,13</SUP>.0<SUP>15,19</SUP>.0<SUP>20,27</SUP>.0<SUP>21,26</SUP>]nonacosa-8,10,12,14,19,21,23,25,27-nonaen-4-yl]-dimethylazanium

> <PUBCHEM_IUPAC_NAME>
ethyl-[(2R,3S,4S,6S)-3-methoxy-2-methyl-16-oxo-29-oxa-1,7,17-triazaoctacyclo[12.12.2.12,6.07,28.08,13.015,19.020,27.021,26]nonacosa-8,10,12,14,19,21,23,25,27-nonaen-4-yl]-dimethylazanium

> <PUBCHEM_IUPAC_SYSTEMATIC_NAME>
ethyl-[(2R,3S,4S,6S)-3-methoxy-2-methyl-16-oxidanylidene-29-oxa-1,7,17-triazaoctacyclo[12.12.2.12,6.07,28.08,13.015,19.020,27.021,26]nonacosa-8,10,12,14,19,21,23,25,27-nonaen-4-yl]-dimethyl-azanium

> <PUBCHEM_IUPAC_TRADITIONAL_NAME>
ethyl-[(2R,3S,4S,6S)-16-keto-3-methoxy-2-methyl-29-oxa-1,7,17-triazaoctacyclo[12.12.2.12,6.07,28.08,13.015,19.020,27.021,26]nonacosa-8,10,12,14,19,21,23,25,27-nonaen-4-yl]-dimethyl-ammonium

> <PUBCHEM_IUPAC_INCHI>
InChI=1S/C31H32N4O3/c1-6-35(3,4)22-15-23-33-20-13-9-7-11-17(20)25-26-19(16-32-30(26)36)24-18-12-8-10-14-21(18)34(28(24)27(25)33)31(2,38-23)29(22)37-5/h7-14,22-23,29H,6,15-16H2,1-5H3/p+1/t22-,23-,29-,31+/m0/s1

> <PUBCHEM_IUPAC_INCHIKEY>
GPGZMTPPOHCJRE-HYABQPPKSA-O

> <PUBCHEM_XLOGP3_AA>
4.1

> <PUBCHEM_EXACT_MASS>
509.25526593

> <PUBCHEM_MOLECULAR_FORMULA>
C31H33N4O3+

> <PUBCHEM_MOLECULAR_WEIGHT>
509.6

> <PUBCHEM_SMILES>
CC[N+](C)(C)[C@H]1C[C@H]2N3C4=CC=CC=C4C5=C6C(=C7C8=CC=CC=C8N(C7=C53)[C@@]([C@H]1OC)(O2)C)CNC6=O

> <PUBCHEM_OPENEYE_CAN_SMILES>
CC[N+](C)(C)C1CC2N3C4=CC=CC=C4C5=C6C(=C7C8=CC=CC=C8N(C7=C53)C(C1OC)(O2)C)CNC6=O

> <PUBCHEM_OPENEYE_ISO_SMILES>
CC[N+](C)(C)[C@H]1C[C@H]2N3C4=CC=CC=C4C5=C6C(=C7C8=CC=CC=C8N(C7=C53)[C@@]([C@H]1OC)(O2)C)CNC6=O

> <PUBCHEM_CACTVS_TPSA>
57.4

> <PUBCHEM_MONOISOTOPIC_WEIGHT>
509.25526593

> <PUBCHEM_TOTAL_CHARGE>
1

> <PUBCHEM_HEAVY_ATOM_COUNT>
38

> <PUBCHEM_ATOM_DEF_STEREO_COUNT>
4

> <PUBCHEM_ATOM_UDEF_STEREO_COUNT>
0

> <PUBCHEM_BOND_DEF_STEREO_COUNT>
0

> <PUBCHEM_BOND_UDEF_STEREO_COUNT>
0

> <PUBCHEM_ISOTOPIC_ATOM_COUNT>
0

> <PUBCHEM_COMPONENT_COUNT>
1

> <PUBCHEM_CACTVS_TAUTO_COUNT>
-1

> <PUBCHEM_COORDINATE_TYPE>
1
5
255

> <PUBCHEM_BONDANNOTATIONS>
12  43  6
13  14  8
13  17  8
14  19  8
17  23  8
17  24  8
18  23  8
18  29  8
19  25  8
19  26  8
10  2  6
22  25  8
22  30  8
23  32  8
24  26  8
25  34  8
29  35  8
30  37  8
32  36  8
34  38  8
35  36  8
37  38  8
8  4  6
5  13  8
5  18  8
6  14  8
6  22  8
9  15  5

$$$$
