49830927
  -OEChem-03202501032D

 33 35  0     0  0  0  0  0  0999 V2000
    8.4353   -0.1202    0.0000 O   0  0  0  0  0  0  0  0  0  0  0  0
    6.7889    0.4179    0.0000 N   0  0  0  0  0  0  0  0  0  0  0  0
    6.4783   -2.1421    0.0000 N   0  0  0  0  0  0  0  0  0  0  0  0
    4.6660   -2.3373    0.0000 N   0  0  0  0  0  0  0  0  0  0  0  0
    7.0619   -1.3373    0.0000 N   0  0  0  0  0  0  0  0  0  0  0  0
    5.5321   -0.8373    0.0000 C   0  0  0  0  0  0  0  0  0  0  0  0
    5.5321   -1.8373    0.0000 C   0  0  0  0  0  0  0  0  0  0  0  0
    6.4783   -0.5326    0.0000 C   0  0  0  0  0  0  0  0  0  0  0  0
    3.8000   -0.8373    0.0000 C   0  0  0  0  0  0  0  0  0  0  0  0
    4.6660   -0.3373    0.0000 C   0  0  0  0  0  0  0  0  0  0  0  0
    3.8000   -1.8373    0.0000 C   0  0  0  0  0  0  0  0  0  0  0  0
    8.0781    1.5747    0.0000 C   0  0  0  0  0  0  0  0  0  0  0  0
    9.0566    1.7809    0.0000 C   0  0  0  0  0  0  0  0  0  0  0  0
    7.7674    0.6241    0.0000 C   0  0  0  0  0  0  0  0  0  0  0  0
    2.9061   -0.3027    0.0000 C   0  0  0  0  0  0  0  0  0  0  0  0
    2.9061   -2.3720    0.0000 C   0  0  0  0  0  0  0  0  0  0  0  0
    9.3673    2.7314    0.0000 C   0  0  0  0  0  0  0  0  0  0  0  0
    2.0000   -0.8165    0.0000 C   0  0  0  0  0  0  0  0  0  0  0  0
    2.0000   -1.8582    0.0000 C   0  0  0  0  0  0  0  0  0  0  0  0
    4.6660    0.2827    0.0000 H   0  0  0  0  0  0  0  0  0  0  0  0
    8.0575    2.1943    0.0000 H   0  0  0  0  0  0  0  0  0  0  0  0
    7.4643    1.6620    0.0000 H   0  0  0  0  0  0  0  0  0  0  0  0
    6.3749    0.8794    0.0000 H   0  0  0  0  0  0  0  0  0  0  0  0
    9.0772    1.1612    0.0000 H   0  0  0  0  0  0  0  0  0  0  0  0
    9.6704    1.6935    0.0000 H   0  0  0  0  0  0  0  0  0  0  0  0
    6.6709   -2.7314    0.0000 H   0  0  0  0  0  0  0  0  0  0  0  0
    2.9132    0.3173    0.0000 H   0  0  0  0  0  0  0  0  0  0  0  0
    2.9132   -2.9920    0.0000 H   0  0  0  0  0  0  0  0  0  0  0  0
    9.9566    2.5388    0.0000 H   0  0  0  0  0  0  0  0  0  0  0  0
    9.5599    3.3207    0.0000 H   0  0  0  0  0  0  0  0  0  0  0  0
    8.7780    2.9240    0.0000 H   0  0  0  0  0  0  0  0  0  0  0  0
    1.4643   -0.5045    0.0000 H   0  0  0  0  0  0  0  0  0  0  0  0
    1.4643   -2.1702    0.0000 H   0  0  0  0  0  0  0  0  0  0  0  0
  1 14  2  0  0  0  0
  2  8  1  0  0  0  0
  2 14  1  0  0  0  0
  2 23  1  0  0  0  0
  3  5  1  0  0  0  0
  3  7  1  0  0  0  0
  3 26  1  0  0  0  0
  4  7  2  0  0  0  0
  4 11  1  0  0  0  0
  5  8  2  0  0  0  0
  6  7  1  0  0  0  0
  6  8  1  0  0  0  0
  6 10  2  0  0  0  0
  9 10  1  0  0  0  0
  9 11  1  0  0  0  0
  9 15  2  0  0  0  0
 10 20  1  0  0  0  0
 11 16  2  0  0  0  0
 12 13  1  0  0  0  0
 12 14  1  0  0  0  0
 12 21  1  0  0  0  0
 12 22  1  0  0  0  0
 13 17  1  0  0  0  0
 13 24  1  0  0  0  0
 13 25  1  0  0  0  0
 15 18  1  0  0  0  0
 15 27  1  0  0  0  0
 16 19  1  0  0  0  0
 16 28  1  0  0  0  0
 17 29  1  0  0  0  0
 17 30  1  0  0  0  0
 17 31  1  0  0  0  0
 18 19  2  0  0  0  0
 18 32  1  0  0  0  0
 19 33  1  0  0  0  0
M  END
> <PUBCHEM_COMPOUND_CID>
49830927

> <PUBCHEM_COMPOUND_CANONICALIZED>
1

> <PUBCHEM_CACTVS_COMPLEXITY>
335

> <PUBCHEM_CACTVS_HBOND_ACCEPTOR>
3

> <PUBCHEM_CACTVS_HBOND_DONOR>
2

> <PUBCHEM_CACTVS_ROTATABLE_BOND>
3

> <PUBCHEM_CACTVS_SUBSKEYS>
AAADccBzoAAAAAAAAAAAAAAAAAAAAWAAAAA8QAAAAAAAAFix/gAAHgAYAAAADAiBnwAz8P7rEACqAydydACShCuhAqAduSEwZJiIKPLA2dGEpAhwnQLIyCcQgMAOAAAAAAACAAAAAAAAAAQAAAAAAAAAAA==

> <PUBCHEM_IUPAC_OPENEYE_NAME>
N-(1H-pyrazolo[3,4-b]quinolin-3-yl)butanamide

> <PUBCHEM_IUPAC_CAS_NAME>
N-(1H-pyrazolo[3,4-b]quinolin-3-yl)butanamide

> <PUBCHEM_IUPAC_NAME_MARKUP>
<I>N</I>-(1<I>H</I>-pyrazolo[3,4-b]quinolin-3-yl)butanamide

> <PUBCHEM_IUPAC_NAME>
N-(1H-pyrazolo[3,4-b]quinolin-3-yl)butanamide

> <PUBCHEM_IUPAC_SYSTEMATIC_NAME>
N-(1H-pyrazolo[3,4-b]quinolin-3-yl)butanamide

> <PUBCHEM_IUPAC_TRADITIONAL_NAME>
N-(1H-pyrazolo[3,4-b]quinolin-3-yl)butyramide

> <PUBCHEM_IUPAC_INCHI>
InChI=1S/C14H14N4O/c1-2-5-12(19)16-14-10-8-9-6-3-4-7-11(9)15-13(10)17-18-14/h3-4,6-8H,2,5H2,1H3,(H2,15,16,17,18,19)

> <PUBCHEM_IUPAC_INCHIKEY>
OROAFGSTGRDOFR-UHFFFAOYSA-N

> <PUBCHEM_XLOGP3_AA>
2.3

> <PUBCHEM_EXACT_MASS>
254.11676108

> <PUBCHEM_MOLECULAR_FORMULA>
C14H14N4O

> <PUBCHEM_MOLECULAR_WEIGHT>
254.29

> <PUBCHEM_SMILES>
CCCC(=O)NC1=NNC2=NC3=CC=CC=C3C=C21

> <PUBCHEM_OPENEYE_CAN_SMILES>
CCCC(=O)NC1=NNC2=NC3=CC=CC=C3C=C21

> <PUBCHEM_OPENEYE_ISO_SMILES>
CCCC(=O)NC1=NNC2=NC3=CC=CC=C3C=C21

> <PUBCHEM_CACTVS_TPSA>
70.7

> <PUBCHEM_MONOISOTOPIC_WEIGHT>
254.11676108

> <PUBCHEM_TOTAL_CHARGE>
0

> <PUBCHEM_HEAVY_ATOM_COUNT>
19

> <PUBCHEM_ATOM_DEF_STEREO_COUNT>
0

> <PUBCHEM_ATOM_UDEF_STEREO_COUNT>
0

> <PUBCHEM_BOND_DEF_STEREO_COUNT>
0

> <PUBCHEM_BOND_UDEF_STEREO_COUNT>
0

> <PUBCHEM_ISOTOPIC_ATOM_COUNT>
0

> <PUBCHEM_COMPONENT_COUNT>
1

> <PUBCHEM_CACTVS_TAUTO_COUNT>
-1

> <PUBCHEM_COORDINATE_TYPE>
1
5
255

> <PUBCHEM_BONDANNOTATIONS>
11  16  8
15  18  8
16  19  8
18  19  8
3  5  8
3  7  8
4  11  8
4  7  8
5  8  8
6  10  8
6  7  8
6  8  8
9  10  8
9  11  8
9  15  8

$$$$
