49806721
  -OEChem-03202500332D

 64 69  0     0  0  0  0  0  0999 V2000
   15.9295    1.3522    0.0000 O   0  0  0  0  0  0  0  0  0  0  0  0
    7.3235   -1.3674    0.0000 O   0  0  0  0  0  0  0  0  0  0  0  0
   13.5700    0.8412    0.0000 N   0  0  0  0  0  0  0  0  0  0  0  0
   11.6154    0.4179    0.0000 N   0  0  0  0  0  0  0  0  0  0  0  0
    6.4667    1.8601    0.0000 N   0  0  0  0  0  0  0  0  0  0  0  0
    2.0000    1.1683    0.0000 N   0  0  0  0  0  0  0  0  0  0  0  0
   14.5474    1.0529    0.0000 C   0  0  0  0  0  0  0  0  0  0  0  0
    8.2506    1.4857    0.0000 C   0  0  0  0  0  0  0  0  0  0  0  0
   12.8980    1.5818    0.0000 C   0  0  0  0  0  0  0  0  0  0  0  0
   13.2647   -0.1110    0.0000 C   0  0  0  0  0  0  0  0  0  0  0  0
   11.9207    1.3701    0.0000 C   0  0  0  0  0  0  0  0  0  0  0  0
   12.2874   -0.3227    0.0000 C   0  0  0  0  0  0  0  0  0  0  0  0
    8.9197    0.7426    0.0000 C   0  0  0  0  0  0  0  0  0  0  0  0
   10.6380    0.2062    0.0000 C   0  0  0  0  0  0  0  0  0  0  0  0
   15.0888    1.8937    0.0000 C   0  0  0  0  0  0  0  0  0  0  0  0
   15.3881    0.5115    0.0000 C   0  0  0  0  0  0  0  0  0  0  0  0
    7.2724    1.2778    0.0000 C   0  0  0  0  0  0  0  0  0  0  0  0
    8.6107   -0.2084    0.0000 C   0  0  0  0  0  0  0  0  0  0  0  0
    9.9351    0.9749    0.0000 C   0  0  0  0  0  0  0  0  0  0  0  0
    6.9634    0.3268    0.0000 C   0  0  0  0  0  0  0  0  0  0  0  0
   10.3161   -0.7845    0.0000 C   0  0  0  0  0  0  0  0  0  0  0  0
    8.9937    2.1549    0.0000 C   0  0  0  0  0  0  0  0  0  0  0  0
    8.0426    2.4639    0.0000 C   0  0  0  0  0  0  0  0  0  0  0  0
    7.6325   -0.4164    0.0000 C   0  0  0  0  0  0  0  0  0  0  0  0
    9.2956   -0.9932    0.0000 C   0  0  0  0  0  0  0  0  0  0  0  0
    5.9693    0.3294    0.0000 C   0  0  0  0  0  0  0  0  0  0  0  0
    5.6629    1.2751    0.0000 C   0  0  0  0  0  0  0  0  0  0  0  0
   10.9824   -1.5302    0.0000 C   0  0  0  0  0  0  0  0  0  0  0  0
    5.2877   -0.4501    0.0000 C   0  0  0  0  0  0  0  0  0  0  0  0
    4.6537    1.5068    0.0000 C   0  0  0  0  0  0  0  0  0  0  0  0
   10.6697   -2.4801    0.0000 C   0  0  0  0  0  0  0  0  0  0  0  0
    4.2734   -0.2418    0.0000 C   0  0  0  0  0  0  0  0  0  0  0  0
    3.9543    0.7433    0.0000 C   0  0  0  0  0  0  0  0  0  0  0  0
    2.9772    0.9558    0.0000 C   0  0  0  0  0  0  0  0  0  0  0  0
   14.1942    1.5625    0.0000 H   0  0  0  0  0  0  0  0  0  0  0  0
   13.4226    1.9124    0.0000 H   0  0  0  0  0  0  0  0  0  0  0  0
   12.6636    2.1557    0.0000 H   0  0  0  0  0  0  0  0  0  0  0  0
   13.2887   -0.7306    0.0000 H   0  0  0  0  0  0  0  0  0  0  0  0
   13.8790   -0.1949    0.0000 H   0  0  0  0  0  0  0  0  0  0  0  0
   11.8967    1.9896    0.0000 H   0  0  0  0  0  0  0  0  0  0  0  0
   11.3064    1.4540    0.0000 H   0  0  0  0  0  0  0  0  0  0  0  0
   11.7628   -0.6533    0.0000 H   0  0  0  0  0  0  0  0  0  0  0  0
   12.5218   -0.8967    0.0000 H   0  0  0  0  0  0  0  0  0  0  0  0
   15.4245    2.4149    0.0000 H   0  0  0  0  0  0  0  0  0  0  0  0
   14.5675    2.2293    0.0000 H   0  0  0  0  0  0  0  0  0  0  0  0
   15.0525   -0.0098    0.0000 H   0  0  0  0  0  0  0  0  0  0  0  0
   15.9094    0.1758    0.0000 H   0  0  0  0  0  0  0  0  0  0  0  0
   10.1198    1.5667    0.0000 H   0  0  0  0  0  0  0  0  0  0  0  0
    9.4086    1.6941    0.0000 H   0  0  0  0  0  0  0  0  0  0  0  0
    9.4544    2.5697    0.0000 H   0  0  0  0  0  0  0  0  0  0  0  0
    8.5788    2.6156    0.0000 H   0  0  0  0  0  0  0  0  0  0  0  0
    8.6491    2.5928    0.0000 H   0  0  0  0  0  0  0  0  0  0  0  0
    7.9137    3.0704    0.0000 H   0  0  0  0  0  0  0  0  0  0  0  0
    7.4362    2.3350    0.0000 H   0  0  0  0  0  0  0  0  0  0  0  0
    9.0972   -1.5806    0.0000 H   0  0  0  0  0  0  0  0  0  0  0  0
    6.4656    2.4801    0.0000 H   0  0  0  0  0  0  0  0  0  0  0  0
   11.5287   -1.8234    0.0000 H   0  0  0  0  0  0  0  0  0  0  0  0
   11.3660   -1.0431    0.0000 H   0  0  0  0  0  0  0  0  0  0  0  0
    5.4856   -1.0377    0.0000 H   0  0  0  0  0  0  0  0  0  0  0  0
    4.4695    2.0988    0.0000 H   0  0  0  0  0  0  0  0  0  0  0  0
   10.0808   -2.2862    0.0000 H   0  0  0  0  0  0  0  0  0  0  0  0
   10.4759   -3.0690    0.0000 H   0  0  0  0  0  0  0  0  0  0  0  0
   11.2586   -2.6739    0.0000 H   0  0  0  0  0  0  0  0  0  0  0  0
    3.8600   -0.7038    0.0000 H   0  0  0  0  0  0  0  0  0  0  0  0
  1 15  1  0  0  0  0
  1 16  1  0  0  0  0
  2 24  2  0  0  0  0
  3  7  1  0  0  0  0
  3  9  1  0  0  0  0
  3 10  1  0  0  0  0
  4 11  1  0  0  0  0
  4 12  1  0  0  0  0
  4 14  1  0  0  0  0
  5 17  1  0  0  0  0
  5 27  1  0  0  0  0
  5 56  1  0  0  0  0
  6 34  3  0  0  0  0
  7 15  1  0  0  0  0
  7 16  1  0  0  0  0
  7 35  1  0  0  0  0
  8 13  1  0  0  0  0
  8 17  1  0  0  0  0
  8 22  1  0  0  0  0
  8 23  1  0  0  0  0
  9 11  1  0  0  0  0
  9 36  1  0  0  0  0
  9 37  1  0  0  0  0
 10 12  1  0  0  0  0
 10 38  1  0  0  0  0
 10 39  1  0  0  0  0
 11 40  1  0  0  0  0
 11 41  1  0  0  0  0
 12 42  1  0  0  0  0
 12 43  1  0  0  0  0
 13 18  2  0  0  0  0
 13 19  1  0  0  0  0
 14 19  2  0  0  0  0
 14 21  1  0  0  0  0
 15 44  1  0  0  0  0
 15 45  1  0  0  0  0
 16 46  1  0  0  0  0
 16 47  1  0  0  0  0
 17 20  2  0  0  0  0
 18 24  1  0  0  0  0
 18 25  1  0  0  0  0
 19 48  1  0  0  0  0
 20 24  1  0  0  0  0
 20 26  1  0  0  0  0
 21 25  2  0  0  0  0
 21 28  1  0  0  0  0
 22 49  1  0  0  0  0
 22 50  1  0  0  0  0
 22 51  1  0  0  0  0
 23 52  1  0  0  0  0
 23 53  1  0  0  0  0
 23 54  1  0  0  0  0
 25 55  1  0  0  0  0
 26 27  2  0  0  0  0
 26 29  1  0  0  0  0
 27 30  1  0  0  0  0
 28 31  1  0  0  0  0
 28 57  1  0  0  0  0
 28 58  1  0  0  0  0
 29 32  2  0  0  0  0
 29 59  1  0  0  0  0
 30 33  2  0  0  0  0
 30 60  1  0  0  0  0
 31 61  1  0  0  0  0
 31 62  1  0  0  0  0
 31 63  1  0  0  0  0
 32 33  1  0  0  0  0
 32 64  1  0  0  0  0
 33 34  1  0  0  0  0
M  END
> <PUBCHEM_COMPOUND_CID>
49806721

> <PUBCHEM_COMPOUND_CANONICALIZED>
1

> <PUBCHEM_CACTVS_COMPLEXITY>
839

> <PUBCHEM_CACTVS_HBOND_ACCEPTOR>
5

> <PUBCHEM_CACTVS_HBOND_DONOR>
1

> <PUBCHEM_CACTVS_ROTATABLE_BOND>
3

> <PUBCHEM_CACTVS_SUBSKEYS>
AAADceB7sAAAAAAAAAAAAAAAAABIAWAAAAA8YMEAAAAAAFjB9AAAHgAQAAAADizhngYywPPJlAC4B6RyRACigCAlAiAImSE4ZNgK4PrAlZGVIYhgkADYyc8cicCfyAACQAASAACQAASAACQAAAAAAAAAAA==

> <PUBCHEM_IUPAC_OPENEYE_NAME>
9-ethyl-6,6-dimethyl-8-[4-(oxetan-3-yl)piperazin-1-yl]-11-oxo-5H-benzo[b]carbazole-3-carbonitrile

> <PUBCHEM_IUPAC_CAS_NAME>
9-ethyl-6,6-dimethyl-8-[4-(3-oxetanyl)-1-piperazinyl]-11-oxo-5H-benzo[b]carbazole-3-carbonitrile

> <PUBCHEM_IUPAC_NAME_MARKUP>
9-ethyl-6,6-dimethyl-8-[4-(oxetan-3-yl)piperazin-1-yl]-11-oxo-5<I>H</I>-benzo[b]carbazole-3-carbonitrile

> <PUBCHEM_IUPAC_NAME>
9-ethyl-6,6-dimethyl-8-[4-(oxetan-3-yl)piperazin-1-yl]-11-oxo-5H-benzo[b]carbazole-3-carbonitrile

> <PUBCHEM_IUPAC_SYSTEMATIC_NAME>
9-ethyl-6,6-dimethyl-8-[4-(oxetan-3-yl)piperazin-1-yl]-11-oxidanylidene-5H-benzo[b]carbazole-3-carbonitrile

> <PUBCHEM_IUPAC_TRADITIONAL_NAME>
9-ethyl-11-keto-6,6-dimethyl-8-[4-(oxetan-3-yl)piperazino]-5H-benzo[b]carbazole-3-carbonitrile

> <PUBCHEM_IUPAC_INCHI>
InChI=1S/C28H30N4O2/c1-4-18-12-21-22(13-24(18)32-9-7-31(8-10-32)19-15-34-16-19)28(2,3)27-25(26(21)33)20-6-5-17(14-29)11-23(20)30-27/h5-6,11-13,19,30H,4,7-10,15-16H2,1-3H3

> <PUBCHEM_IUPAC_INCHIKEY>
XDTMZEAHVJVNJG-UHFFFAOYSA-N

> <PUBCHEM_XLOGP3_AA>
4.5

> <PUBCHEM_EXACT_MASS>
454.23687621

> <PUBCHEM_MOLECULAR_FORMULA>
C28H30N4O2

> <PUBCHEM_MOLECULAR_WEIGHT>
454.6

> <PUBCHEM_SMILES>
CCC1=CC2=C(C=C1N3CCN(CC3)C4COC4)C(C5=C(C2=O)C6=C(N5)C=C(C=C6)C#N)(C)C

> <PUBCHEM_OPENEYE_CAN_SMILES>
CCC1=CC2=C(C=C1N3CCN(CC3)C4COC4)C(C5=C(C2=O)C6=C(N5)C=C(C=C6)C#N)(C)C

> <PUBCHEM_OPENEYE_ISO_SMILES>
CCC1=CC2=C(C=C1N3CCN(CC3)C4COC4)C(C5=C(C2=O)C6=C(N5)C=C(C=C6)C#N)(C)C

> <PUBCHEM_CACTVS_TPSA>
72.4

> <PUBCHEM_MONOISOTOPIC_WEIGHT>
454.23687621

> <PUBCHEM_TOTAL_CHARGE>
0

> <PUBCHEM_HEAVY_ATOM_COUNT>
34

> <PUBCHEM_ATOM_DEF_STEREO_COUNT>
0

> <PUBCHEM_ATOM_UDEF_STEREO_COUNT>
0

> <PUBCHEM_BOND_DEF_STEREO_COUNT>
0

> <PUBCHEM_BOND_UDEF_STEREO_COUNT>
0

> <PUBCHEM_ISOTOPIC_ATOM_COUNT>
0

> <PUBCHEM_COMPONENT_COUNT>
1

> <PUBCHEM_CACTVS_TAUTO_COUNT>
-1

> <PUBCHEM_COORDINATE_TYPE>
1
5
255

> <PUBCHEM_BONDANNOTATIONS>
13  18  8
13  19  8
14  19  8
14  21  8
17  20  8
18  25  8
20  26  8
21  25  8
26  27  8
26  29  8
27  30  8
29  32  8
30  33  8
32  33  8
5  17  8
5  27  8

$$$$
