25057409
  -OEChem-03202507122D

 60 63  0     0  0  0  0  0  0999 V2000
   10.6603    1.7327    0.0000 O   0  0  0  0  0  0  0  0  0  0  0  0
    2.0000    0.7327    0.0000 O   0  0  0  0  0  0  0  0  0  0  0  0
    2.0000   -1.2673    0.0000 O   0  0  0  0  0  0  0  0  0  0  0  0
    5.4641    1.7327    0.0000 O   0  0  0  0  0  0  0  0  0  0  0  0
   15.9244    0.7119    0.0000 N   0  0  0  0  0  0  0  0  0  0  0  0
   11.5263    0.2327    0.0000 N   0  0  0  0  0  0  0  0  0  0  0  0
    6.3301    0.2327    0.0000 N   0  0  0  0  0  0  0  0  0  0  0  0
   15.0183    2.2673    0.0000 C   0  0  0  0  0  0  0  0  0  0  0  0
   14.1244    1.7327    0.0000 C   0  0  0  0  0  0  0  0  0  0  0  0
   14.1244    0.7327    0.0000 C   0  0  0  0  0  0  0  0  0  0  0  0
   15.9244    1.7535    0.0000 C   0  0  0  0  0  0  0  0  0  0  0  0
   15.0183    0.1980    0.0000 C   0  0  0  0  0  0  0  0  0  0  0  0
   13.2583    0.2327    0.0000 C   0  0  0  0  0  0  0  0  0  0  0  0
   13.2583    2.2327    0.0000 C   0  0  0  0  0  0  0  0  0  0  0  0
   12.3923    0.7327    0.0000 C   0  0  0  0  0  0  0  0  0  0  0  0
   12.3923    1.7327    0.0000 C   0  0  0  0  0  0  0  0  0  0  0  0
   10.6603    0.7327    0.0000 C   0  0  0  0  0  0  0  0  0  0  0  0
    9.7942    0.2327    0.0000 C   0  0  0  0  0  0  0  0  0  0  0  0
    8.0622    0.2327    0.0000 C   0  0  0  0  0  0  0  0  0  0  0  0
    8.9282    0.7327    0.0000 C   0  0  0  0  0  0  0  0  0  0  0  0
    7.1962    0.7327    0.0000 C   0  0  0  0  0  0  0  0  0  0  0  0
    9.7942   -0.7673    0.0000 C   0  0  0  0  0  0  0  0  0  0  0  0
    8.0622   -0.7673    0.0000 C   0  0  0  0  0  0  0  0  0  0  0  0
    8.9282   -1.2673    0.0000 C   0  0  0  0  0  0  0  0  0  0  0  0
    4.5981    0.2327    0.0000 C   0  0  0  0  0  0  0  0  0  0  0  0
    5.4641    0.7327    0.0000 C   0  0  0  0  0  0  0  0  0  0  0  0
    3.7320    0.7327    0.0000 C   0  0  0  0  0  0  0  0  0  0  0  0
    4.5981   -0.7673    0.0000 C   0  0  0  0  0  0  0  0  0  0  0  0
    2.8660    0.2327    0.0000 C   0  0  0  0  0  0  0  0  0  0  0  0
    2.8660   -0.7673    0.0000 C   0  0  0  0  0  0  0  0  0  0  0  0
    3.7320   -1.2673    0.0000 C   0  0  0  0  0  0  0  0  0  0  0  0
    2.0000    1.7327    0.0000 C   0  0  0  0  0  0  0  0  0  0  0  0
    2.0000   -2.2673    0.0000 C   0  0  0  0  0  0  0  0  0  0  0  0
   15.4119    2.7464    0.0000 H   0  0  0  0  0  0  0  0  0  0  0  0
   14.6137    2.7371    0.0000 H   0  0  0  0  0  0  0  0  0  0  0  0
   16.5352    1.6474    0.0000 H   0  0  0  0  0  0  0  0  0  0  0  0
   16.1334    2.3372    0.0000 H   0  0  0  0  0  0  0  0  0  0  0  0
   14.6137   -0.2718    0.0000 H   0  0  0  0  0  0  0  0  0  0  0  0
   15.4119   -0.2810    0.0000 H   0  0  0  0  0  0  0  0  0  0  0  0
   16.4601    0.3998    0.0000 H   0  0  0  0  0  0  0  0  0  0  0  0
   13.2583   -0.3873    0.0000 H   0  0  0  0  0  0  0  0  0  0  0  0
   13.2583    2.8527    0.0000 H   0  0  0  0  0  0  0  0  0  0  0  0
   11.8554    2.0427    0.0000 H   0  0  0  0  0  0  0  0  0  0  0  0
   11.5263   -0.3873    0.0000 H   0  0  0  0  0  0  0  0  0  0  0  0
    8.9282    1.3527    0.0000 H   0  0  0  0  0  0  0  0  0  0  0  0
    7.5947    1.2076    0.0000 H   0  0  0  0  0  0  0  0  0  0  0  0
    6.7976    1.2076    0.0000 H   0  0  0  0  0  0  0  0  0  0  0  0
   10.3312   -1.0773    0.0000 H   0  0  0  0  0  0  0  0  0  0  0  0
    7.5252   -1.0773    0.0000 H   0  0  0  0  0  0  0  0  0  0  0  0
    8.9282   -1.8873    0.0000 H   0  0  0  0  0  0  0  0  0  0  0  0
    6.3301   -0.3873    0.0000 H   0  0  0  0  0  0  0  0  0  0  0  0
    3.7320    1.3527    0.0000 H   0  0  0  0  0  0  0  0  0  0  0  0
    5.1350   -1.0773    0.0000 H   0  0  0  0  0  0  0  0  0  0  0  0
    3.7320   -1.8873    0.0000 H   0  0  0  0  0  0  0  0  0  0  0  0
    2.6200    1.7327    0.0000 H   0  0  0  0  0  0  0  0  0  0  0  0
    2.0000    2.3527    0.0000 H   0  0  0  0  0  0  0  0  0  0  0  0
    1.3800    1.7327    0.0000 H   0  0  0  0  0  0  0  0  0  0  0  0
    1.3800   -2.2673    0.0000 H   0  0  0  0  0  0  0  0  0  0  0  0
    2.0000   -2.8873    0.0000 H   0  0  0  0  0  0  0  0  0  0  0  0
    2.6200   -2.2673    0.0000 H   0  0  0  0  0  0  0  0  0  0  0  0
  1 17  2  0  0  0  0
  2 29  1  0  0  0  0
  2 32  1  0  0  0  0
  3 30  1  0  0  0  0
  3 33  1  0  0  0  0
  4 26  2  0  0  0  0
  5 11  1  0  0  0  0
  5 12  1  0  0  0  0
  5 40  1  0  0  0  0
  6 15  1  0  0  0  0
  6 17  1  0  0  0  0
  6 44  1  0  0  0  0
  7 21  1  0  0  0  0
  7 26  1  0  0  0  0
  7 51  1  0  0  0  0
  8  9  1  0  0  0  0
  8 11  1  0  0  0  0
  8 34  1  0  0  0  0
  8 35  1  0  0  0  0
  9 10  2  0  0  0  0
  9 14  1  0  0  0  0
 10 12  1  0  0  0  0
 10 13  1  0  0  0  0
 11 36  1  0  0  0  0
 11 37  1  0  0  0  0
 12 38  1  0  0  0  0
 12 39  1  0  0  0  0
 13 15  2  0  0  0  0
 13 41  1  0  0  0  0
 14 16  2  0  0  0  0
 14 42  1  0  0  0  0
 15 16  1  0  0  0  0
 16 43  1  0  0  0  0
 17 18  1  0  0  0  0
 18 20  1  0  0  0  0
 18 22  2  0  0  0  0
 19 20  2  0  0  0  0
 19 21  1  0  0  0  0
 19 23  1  0  0  0  0
 20 45  1  0  0  0  0
 21 46  1  0  0  0  0
 21 47  1  0  0  0  0
 22 24  1  0  0  0  0
 22 48  1  0  0  0  0
 23 24  2  0  0  0  0
 23 49  1  0  0  0  0
 24 50  1  0  0  0  0
 25 26  1  0  0  0  0
 25 27  2  0  0  0  0
 25 28  1  0  0  0  0
 27 29  1  0  0  0  0
 27 52  1  0  0  0  0
 28 31  2  0  0  0  0
 28 53  1  0  0  0  0
 29 30  2  0  0  0  0
 30 31  1  0  0  0  0
 31 54  1  0  0  0  0
 32 55  1  0  0  0  0
 32 56  1  0  0  0  0
 32 57  1  0  0  0  0
 33 58  1  0  0  0  0
 33 59  1  0  0  0  0
 33 60  1  0  0  0  0
M  END
> <PUBCHEM_COMPOUND_CID>
25057409

> <PUBCHEM_COMPOUND_CANONICALIZED>
1

> <PUBCHEM_CACTVS_COMPLEXITY>
659

> <PUBCHEM_CACTVS_HBOND_ACCEPTOR>
5

> <PUBCHEM_CACTVS_HBOND_DONOR>
3

> <PUBCHEM_CACTVS_ROTATABLE_BOND>
7

> <PUBCHEM_CACTVS_SUBSKEYS>
AAADceB7OAAAAAAAAAAAAAAAAAAAAAAAAAA8YMEAAAAAAACxUAAAHgAQAAAADAzBmAYyxoLABACIAiVSUACCCAAlIgAIiIEO7MgNJjLEtZuEMSpk1hHK6Ye63dLOqAADQAAQQABQAAaAACCAAAAAAAAAAA==

> <PUBCHEM_IUPAC_OPENEYE_NAME>
3,4-dimethoxy-N-[[3-(1,2,3,4-tetrahydroisoquinolin-7-ylcarbamoyl)phenyl]methyl]benzamide

> <PUBCHEM_IUPAC_CAS_NAME>
3,4-dimethoxy-N-[[3-[oxo-(1,2,3,4-tetrahydroisoquinolin-7-ylamino)methyl]phenyl]methyl]benzamide

> <PUBCHEM_IUPAC_NAME_MARKUP>
3,4-dimethoxy-<I>N</I>-[[3-(1,2,3,4-tetrahydroisoquinolin-7-ylcarbamoyl)phenyl]methyl]benzamide

> <PUBCHEM_IUPAC_NAME>
3,4-dimethoxy-N-[[3-(1,2,3,4-tetrahydroisoquinolin-7-ylcarbamoyl)phenyl]methyl]benzamide

> <PUBCHEM_IUPAC_SYSTEMATIC_NAME>
3,4-dimethoxy-N-[[3-(1,2,3,4-tetrahydroisoquinolin-7-ylcarbamoyl)phenyl]methyl]benzamide

> <PUBCHEM_IUPAC_TRADITIONAL_NAME>
3,4-dimethoxy-N-[3-(1,2,3,4-tetrahydroisoquinolin-7-ylcarbamoyl)benzyl]benzamide

> <PUBCHEM_IUPAC_INCHI>
InChI=1S/C26H27N3O4/c1-32-23-9-7-20(14-24(23)33-2)25(30)28-15-17-4-3-5-19(12-17)26(31)29-22-8-6-18-10-11-27-16-21(18)13-22/h3-9,12-14,27H,10-11,15-16H2,1-2H3,(H,28,30)(H,29,31)

> <PUBCHEM_IUPAC_INCHIKEY>
AOTJVGQNGQYEAY-UHFFFAOYSA-N

> <PUBCHEM_XLOGP3_AA>
2.9

> <PUBCHEM_EXACT_MASS>
445.20015635

> <PUBCHEM_MOLECULAR_FORMULA>
C26H27N3O4

> <PUBCHEM_MOLECULAR_WEIGHT>
445.5

> <PUBCHEM_SMILES>
COC1=C(C=C(C=C1)C(=O)NCC2=CC(=CC=C2)C(=O)NC3=CC4=C(CCNC4)C=C3)OC

> <PUBCHEM_OPENEYE_CAN_SMILES>
COC1=C(C=C(C=C1)C(=O)NCC2=CC(=CC=C2)C(=O)NC3=CC4=C(CCNC4)C=C3)OC

> <PUBCHEM_OPENEYE_ISO_SMILES>
COC1=C(C=C(C=C1)C(=O)NCC2=CC(=CC=C2)C(=O)NC3=CC4=C(CCNC4)C=C3)OC

> <PUBCHEM_CACTVS_TPSA>
88.7

> <PUBCHEM_MONOISOTOPIC_WEIGHT>
445.20015635

> <PUBCHEM_TOTAL_CHARGE>
0

> <PUBCHEM_HEAVY_ATOM_COUNT>
33

> <PUBCHEM_ATOM_DEF_STEREO_COUNT>
0

> <PUBCHEM_ATOM_UDEF_STEREO_COUNT>
0

> <PUBCHEM_BOND_DEF_STEREO_COUNT>
0

> <PUBCHEM_BOND_UDEF_STEREO_COUNT>
0

> <PUBCHEM_ISOTOPIC_ATOM_COUNT>
0

> <PUBCHEM_COMPONENT_COUNT>
1

> <PUBCHEM_CACTVS_TAUTO_COUNT>
-1

> <PUBCHEM_COORDINATE_TYPE>
1
5
255

> <PUBCHEM_BONDANNOTATIONS>
10  13  8
13  15  8
14  16  8
15  16  8
18  20  8
18  22  8
19  20  8
19  23  8
22  24  8
23  24  8
25  27  8
25  28  8
27  29  8
28  31  8
29  30  8
30  31  8
9  10  8
9  14  8

$$$$
