15314692
  -OEChem-03202501482D

 25 27  0     0  0  0  0  0  0999 V2000
    4.6783   -2.1329    0.0000 S   0  0  0  0  0  0  0  0  0  0  0  0
    2.8660   -2.3282    0.0000 N   0  0  0  0  0  0  0  0  0  0  0  0
    2.0000   -0.8281    0.0000 N   0  0  0  0  0  0  0  0  0  0  0  0
    2.8660    0.6719    0.0000 N   0  0  0  0  0  0  0  0  0  0  0  0
    4.6783   -0.5234    0.0000 C   0  0  0  0  0  0  0  0  0  0  0  0
    3.7320   -0.8281    0.0000 C   0  0  0  0  0  0  0  0  0  0  0  0
    4.9889    0.4271    0.0000 C   0  0  0  0  0  0  0  0  0  0  0  0
    3.7320   -1.8282    0.0000 C   0  0  0  0  0  0  0  0  0  0  0  0
    5.2619   -1.3282    0.0000 C   0  0  0  0  0  0  0  0  0  0  0  0
    2.8660   -0.3281    0.0000 C   0  0  0  0  0  0  0  0  0  0  0  0
    5.9674    0.6333    0.0000 C   0  0  0  0  0  0  0  0  0  0  0  0
    4.3211    1.1714    0.0000 C   0  0  0  0  0  0  0  0  0  0  0  0
    6.2781    1.5838    0.0000 C   0  0  0  0  0  0  0  0  0  0  0  0
    4.6318    2.1219    0.0000 C   0  0  0  0  0  0  0  0  0  0  0  0
    5.6103    2.3282    0.0000 C   0  0  0  0  0  0  0  0  0  0  0  0
    2.0000   -1.8282    0.0000 C   0  0  0  0  0  0  0  0  0  0  0  0
    5.8819   -1.3282    0.0000 H   0  0  0  0  0  0  0  0  0  0  0  0
    6.3815    0.1719    0.0000 H   0  0  0  0  0  0  0  0  0  0  0  0
    3.7144    1.0436    0.0000 H   0  0  0  0  0  0  0  0  0  0  0  0
    6.8848    1.7117    0.0000 H   0  0  0  0  0  0  0  0  0  0  0  0
    4.2177    2.5834    0.0000 H   0  0  0  0  0  0  0  0  0  0  0  0
    5.8029    2.9175    0.0000 H   0  0  0  0  0  0  0  0  0  0  0  0
    1.4631   -2.1382    0.0000 H   0  0  0  0  0  0  0  0  0  0  0  0
    2.3291    0.9819    0.0000 H   0  0  0  0  0  0  0  0  0  0  0  0
    3.4030    0.9819    0.0000 H   0  0  0  0  0  0  0  0  0  0  0  0
  1  8  1  0  0  0  0
  1  9  1  0  0  0  0
  2  8  2  0  0  0  0
  2 16  1  0  0  0  0
  3 10  1  0  0  0  0
  3 16  2  0  0  0  0
  4 10  1  0  0  0  0
  4 24  1  0  0  0  0
  4 25  1  0  0  0  0
  5  6  1  0  0  0  0
  5  7  1  0  0  0  0
  5  9  2  0  0  0  0
  6  8  1  0  0  0  0
  6 10  2  0  0  0  0
  7 11  2  0  0  0  0
  7 12  1  0  0  0  0
  9 17  1  0  0  0  0
 11 13  1  0  0  0  0
 11 18  1  0  0  0  0
 12 14  2  0  0  0  0
 12 19  1  0  0  0  0
 13 15  2  0  0  0  0
 13 20  1  0  0  0  0
 14 15  1  0  0  0  0
 14 21  1  0  0  0  0
 15 22  1  0  0  0  0
 16 23  1  0  0  0  0
M  END
> <PUBCHEM_COMPOUND_CID>
15314692

> <PUBCHEM_COMPOUND_CANONICALIZED>
1

> <PUBCHEM_CACTVS_COMPLEXITY>
242

> <PUBCHEM_CACTVS_HBOND_ACCEPTOR>
4

> <PUBCHEM_CACTVS_HBOND_DONOR>
1

> <PUBCHEM_CACTVS_ROTATABLE_BOND>
1

> <PUBCHEM_CACTVS_SUBSKEYS>
AAADccBzAABAAAAAAAAAAAAAAAAAASAAAAA8QAAAAAAAAFgB/AAAHAQQAAAADACFWgS1sdZIEAikAiJjZACD0KlxCLgJ2DAoRJiIKCLg2dGEJAxogAJoyCcQgMAOgAAAAAAAAAAAAAAAAAAAAAAAAAAAAA==

> <PUBCHEM_IUPAC_OPENEYE_NAME>
5-phenylthieno[2,3-d]pyrimidin-4-amine

> <PUBCHEM_IUPAC_CAS_NAME>
5-phenyl-4-thieno[2,3-d]pyrimidinamine

> <PUBCHEM_IUPAC_NAME_MARKUP>
5-phenylthieno[2,3-d]pyrimidin-4-amine

> <PUBCHEM_IUPAC_NAME>
5-phenylthieno[2,3-d]pyrimidin-4-amine

> <PUBCHEM_IUPAC_SYSTEMATIC_NAME>
5-phenylthieno[2,3-d]pyrimidin-4-amine

> <PUBCHEM_IUPAC_TRADITIONAL_NAME>
(5-phenylthieno[2,3-d]pyrimidin-4-yl)amine

> <PUBCHEM_IUPAC_INCHI>
InChI=1S/C12H9N3S/c13-11-10-9(8-4-2-1-3-5-8)6-16-12(10)15-7-14-11/h1-7H,(H2,13,14,15)

> <PUBCHEM_IUPAC_INCHIKEY>
QKUFEXGLTQADSA-UHFFFAOYSA-N

> <PUBCHEM_XLOGP3_AA>
2.8

> <PUBCHEM_EXACT_MASS>
227.05171847

> <PUBCHEM_MOLECULAR_FORMULA>
C12H9N3S

> <PUBCHEM_MOLECULAR_WEIGHT>
227.29

> <PUBCHEM_SMILES>
C1=CC=C(C=C1)C2=CSC3=NC=NC(=C23)N

> <PUBCHEM_OPENEYE_CAN_SMILES>
C1=CC=C(C=C1)C2=CSC3=NC=NC(=C23)N

> <PUBCHEM_OPENEYE_ISO_SMILES>
C1=CC=C(C=C1)C2=CSC3=NC=NC(=C23)N

> <PUBCHEM_CACTVS_TPSA>
80

> <PUBCHEM_MONOISOTOPIC_WEIGHT>
227.05171847

> <PUBCHEM_TOTAL_CHARGE>
0

> <PUBCHEM_HEAVY_ATOM_COUNT>
16

> <PUBCHEM_ATOM_DEF_STEREO_COUNT>
0

> <PUBCHEM_ATOM_UDEF_STEREO_COUNT>
0

> <PUBCHEM_BOND_DEF_STEREO_COUNT>
0

> <PUBCHEM_BOND_UDEF_STEREO_COUNT>
0

> <PUBCHEM_ISOTOPIC_ATOM_COUNT>
0

> <PUBCHEM_COMPONENT_COUNT>
1

> <PUBCHEM_CACTVS_TAUTO_COUNT>
-1

> <PUBCHEM_COORDINATE_TYPE>
1
5
255

> <PUBCHEM_BONDANNOTATIONS>
1  8  8
1  9  8
11  13  8
12  14  8
13  15  8
14  15  8
2  16  8
2  8  8
3  10  8
3  16  8
5  6  8
5  9  8
6  10  8
6  8  8
7  11  8
7  12  8

$$$$
