44411183
  -OEChem-03202505592D

 68 71  0     1  0  0  0  0  0999 V2000
   11.5437   -3.5272    0.0000 Cl  0  0  0  0  0  0  0  0  0  0  0  0
    9.8234   -2.5072    0.0000 F   0  0  0  0  0  0  0  0  0  0  0  0
    7.1276   -1.5652    0.0000 O   0  0  0  0  0  0  0  0  0  0  0  0
    6.3660    2.5272    0.0000 O   0  0  0  0  0  0  0  0  0  0  0  0
    3.5000   -0.9728    0.0000 N   0  0  0  0  0  0  0  0  0  0  0  0
    6.3660   -0.4728    0.0000 N   0  0  3  0  0  0  0  0  0  0  0  0
    5.8008   -2.6785    0.0000 N   0  0  0  0  0  0  0  0  0  0  0  0
    9.8580    2.5619    0.0000 N   0  0  0  0  0  0  0  0  0  0  0  0
    9.8465   -0.5074    0.0000 N   0  0  0  0  0  0  0  0  0  0  0  0
   10.7641    1.0064    0.0000 N   0  0  0  0  0  0  0  0  0  0  0  0
    5.5000   -0.9728    0.0000 C   0  0  0  0  0  0  0  0  0  0  0  0
    5.0000   -1.8388    0.0000 C   0  0  0  0  0  0  0  0  0  0  0  0
    5.0000   -0.1068    0.0000 C   0  0  0  0  0  0  0  0  0  0  0  0
    4.0000   -1.8388    0.0000 C   0  0  0  0  0  0  0  0  0  0  0  0
    4.0000   -0.1068    0.0000 C   0  0  0  0  0  0  0  0  0  0  0  0
    2.5000   -0.9728    0.0000 C   0  0  0  0  0  0  0  0  0  0  0  0
    6.1428   -1.7388    0.0000 C   0  0  0  0  0  0  0  0  0  0  0  0
    6.3660    0.5272    0.0000 C   0  0  0  0  0  0  0  0  0  0  0  0
    7.3508   -0.6464    0.0000 C   0  0  0  0  0  0  0  0  0  0  0  0
    2.0000   -1.8388    0.0000 C   0  0  0  0  0  0  0  0  0  0  0  0
    2.0000   -0.1068    0.0000 C   0  0  0  0  0  0  0  0  0  0  0  0
    7.2320    1.0272    0.0000 C   0  0  0  0  0  0  0  0  0  0  0  0
    7.2320    2.0272    0.0000 C   0  0  0  0  0  0  0  0  0  0  0  0
    8.0981    0.5272    0.0000 C   0  0  0  0  0  0  0  0  0  0  0  0
    8.9641    1.0272    0.0000 C   0  0  0  0  0  0  0  0  0  0  0  0
    8.0981    2.5272    0.0000 C   0  0  0  0  0  0  0  0  0  0  0  0
    8.9641    2.0272    0.0000 C   0  0  0  0  0  0  0  0  0  0  0  0
    9.8580    0.4926    0.0000 C   0  0  0  0  0  0  0  0  0  0  0  0
    6.3660    3.5272    0.0000 C   0  0  0  0  0  0  0  0  0  0  0  0
   10.7641    2.0480    0.0000 C   0  0  0  0  0  0  0  0  0  0  0  0
   10.7067   -1.0174    0.0000 C   0  0  0  0  0  0  0  0  0  0  0  0
   10.6951   -2.0173    0.0000 C   0  0  0  0  0  0  0  0  0  0  0  0
   11.5784   -0.5274    0.0000 C   0  0  0  0  0  0  0  0  0  0  0  0
   11.5553   -2.5273    0.0000 C   0  0  0  0  0  0  0  0  0  0  0  0
   12.4386   -1.0374    0.0000 C   0  0  0  0  0  0  0  0  0  0  0  0
   12.4270   -2.0373    0.0000 C   0  0  0  0  0  0  0  0  0  0  0  0
    4.8923   -2.4494    0.0000 H   0  0  0  0  0  0  0  0  0  0  0  0
    5.5826   -2.0509    0.0000 H   0  0  0  0  0  0  0  0  0  0  0  0
    5.5826    0.1053    0.0000 H   0  0  0  0  0  0  0  0  0  0  0  0
    4.8923    0.5038    0.0000 H   0  0  0  0  0  0  0  0  0  0  0  0
    3.4174   -2.0509    0.0000 H   0  0  0  0  0  0  0  0  0  0  0  0
    4.1077   -2.4494    0.0000 H   0  0  0  0  0  0  0  0  0  0  0  0
    4.1077    0.5038    0.0000 H   0  0  0  0  0  0  0  0  0  0  0  0
    3.4174    0.1053    0.0000 H   0  0  0  0  0  0  0  0  0  0  0  0
    1.8800   -0.9728    0.0000 H   0  0  0  0  0  0  0  0  0  0  0  0
    6.1540    1.1098    0.0000 H   0  0  0  0  0  0  0  0  0  0  0  0
    5.7554    0.4195    0.0000 H   0  0  0  0  0  0  0  0  0  0  0  0
    7.2432   -1.2570    0.0000 H   0  0  0  0  0  0  0  0  0  0  0  0
    7.9614   -0.7541    0.0000 H   0  0  0  0  0  0  0  0  0  0  0  0
    7.4585   -0.0359    0.0000 H   0  0  0  0  0  0  0  0  0  0  0  0
    1.4631   -1.5288    0.0000 H   0  0  0  0  0  0  0  0  0  0  0  0
    1.6900   -2.3758    0.0000 H   0  0  0  0  0  0  0  0  0  0  0  0
    2.5369   -2.1488    0.0000 H   0  0  0  0  0  0  0  0  0  0  0  0
    2.5369    0.2032    0.0000 H   0  0  0  0  0  0  0  0  0  0  0  0
    1.6900    0.4302    0.0000 H   0  0  0  0  0  0  0  0  0  0  0  0
    1.4631   -0.4168    0.0000 H   0  0  0  0  0  0  0  0  0  0  0  0
    6.1993   -3.1535    0.0000 H   0  0  0  0  0  0  0  0  0  0  0  0
    5.1902   -2.7862    0.0000 H   0  0  0  0  0  0  0  0  0  0  0  0
    8.0981   -0.0928    0.0000 H   0  0  0  0  0  0  0  0  0  0  0  0
    8.0981    3.1472    0.0000 H   0  0  0  0  0  0  0  0  0  0  0  0
    6.9860    3.5272    0.0000 H   0  0  0  0  0  0  0  0  0  0  0  0
    6.3660    4.1472    0.0000 H   0  0  0  0  0  0  0  0  0  0  0  0
    5.7460    3.5272    0.0000 H   0  0  0  0  0  0  0  0  0  0  0  0
    9.3060   -0.8112    0.0000 H   0  0  0  0  0  0  0  0  0  0  0  0
   11.2998    2.3601    0.0000 H   0  0  0  0  0  0  0  0  0  0  0  0
   11.5856    0.0925    0.0000 H   0  0  0  0  0  0  0  0  0  0  0  0
   12.9791   -0.7336    0.0000 H   0  0  0  0  0  0  0  0  0  0  0  0
   12.9604   -2.3535    0.0000 H   0  0  0  0  0  0  0  0  0  0  0  0
  1 34  1  0  0  0  0
  2 32  1  0  0  0  0
  3 17  2  0  0  0  0
  4 23  1  0  0  0  0
  4 29  1  0  0  0  0
  5 14  1  0  0  0  0
  5 15  1  0  0  0  0
  5 16  1  0  0  0  0
  6 11  1  0  0  0  0
  6 18  1  0  0  0  0
  6 19  1  0  0  0  0
  7 17  1  0  0  0  0
  7 57  1  0  0  0  0
  7 58  1  0  0  0  0
  8 27  1  0  0  0  0
  8 30  2  0  0  0  0
  9 28  1  0  0  0  0
  9 31  1  0  0  0  0
  9 64  1  0  0  0  0
 10 28  2  0  0  0  0
 10 30  1  0  0  0  0
 11 12  1  0  0  0  0
 11 13  1  0  0  0  0
 11 17  1  0  0  0  0
 12 14  1  0  0  0  0
 12 37  1  0  0  0  0
 12 38  1  0  0  0  0
 13 15  1  0  0  0  0
 13 39  1  0  0  0  0
 13 40  1  0  0  0  0
 14 41  1  0  0  0  0
 14 42  1  0  0  0  0
 15 43  1  0  0  0  0
 15 44  1  0  0  0  0
 16 20  1  0  0  0  0
 16 21  1  0  0  0  0
 16 45  1  0  0  0  0
 18 22  1  0  0  0  0
 18 46  1  0  0  0  0
 18 47  1  0  0  0  0
 19 48  1  0  0  0  0
 19 49  1  0  0  0  0
 19 50  1  0  0  0  0
 20 51  1  0  0  0  0
 20 52  1  0  0  0  0
 20 53  1  0  0  0  0
 21 54  1  0  0  0  0
 21 55  1  0  0  0  0
 21 56  1  0  0  0  0
 22 23  1  0  0  0  0
 22 24  2  0  0  0  0
 23 26  2  0  0  0  0
 24 25  1  0  0  0  0
 24 59  1  0  0  0  0
 25 27  2  0  0  0  0
 25 28  1  0  0  0  0
 26 27  1  0  0  0  0
 26 60  1  0  0  0  0
 29 61  1  0  0  0  0
 29 62  1  0  0  0  0
 29 63  1  0  0  0  0
 30 65  1  0  0  0  0
 31 32  2  0  0  0  0
 31 33  1  0  0  0  0
 32 34  1  0  0  0  0
 33 35  2  0  0  0  0
 33 66  1  0  0  0  0
 34 36  2  0  0  0  0
 35 36  1  0  0  0  0
 35 67  1  0  0  0  0
 36 68  1  0  0  0  0
M  END
> <PUBCHEM_COMPOUND_CID>
44411183

> <PUBCHEM_COMPOUND_CANONICALIZED>
1

> <PUBCHEM_CACTVS_COMPLEXITY>
739

> <PUBCHEM_CACTVS_HBOND_ACCEPTOR>
8

> <PUBCHEM_CACTVS_HBOND_DONOR>
2

> <PUBCHEM_CACTVS_ROTATABLE_BOND>
8

> <PUBCHEM_CACTVS_SUBSKEYS>
AAADcfB7sQAEAAAAAAAAAAAAAAAAAAAAAAA8eIEAAAAAAACx9AAAHwIQAAAADK7Bni439vfIFACoAydzdACCiCkxJ6AJ2CG+bpiMbvLF+/uUNChu0BvI6CeU0GMOKAACAgIKAABQAAQEBBQAAAAAAAAAAA==

> <PUBCHEM_IUPAC_OPENEYE_NAME>
4-[[4-(3-chloro-2-fluoro-anilino)-7-methoxy-quinazolin-6-yl]methyl-methyl-amino]-1-isopropyl-piperidine-4-carboxamide

> <PUBCHEM_IUPAC_CAS_NAME>
4-[[4-(3-chloro-2-fluoroanilino)-7-methoxy-6-quinazolinyl]methyl-methylamino]-1-propan-2-yl-4-piperidinecarboxamide

> <PUBCHEM_IUPAC_NAME_MARKUP>
4-[[4-(3-chloro-2-fluoroanilino)-7-methoxyquinazolin-6-yl]methyl-methylamino]-1-propan-2-ylpiperidine-4-carboxamide

> <PUBCHEM_IUPAC_NAME>
4-[[4-(3-chloro-2-fluoroanilino)-7-methoxyquinazolin-6-yl]methyl-methylamino]-1-propan-2-ylpiperidine-4-carboxamide

> <PUBCHEM_IUPAC_SYSTEMATIC_NAME>
4-[[4-[(3-chloranyl-2-fluoranyl-phenyl)amino]-7-methoxy-quinazolin-6-yl]methyl-methyl-amino]-1-propan-2-yl-piperidine-4-carboxamide

> <PUBCHEM_IUPAC_TRADITIONAL_NAME>
4-[[4-(3-chloro-2-fluoro-anilino)-7-methoxy-quinazolin-6-yl]methyl-methyl-amino]-1-isopropyl-isonipecotamide

> <PUBCHEM_IUPAC_INCHI>
InChI=1S/C26H32ClFN6O2/c1-16(2)34-10-8-26(9-11-34,25(29)35)33(3)14-17-12-18-21(13-22(17)36-4)30-15-31-24(18)32-20-7-5-6-19(27)23(20)28/h5-7,12-13,15-16H,8-11,14H2,1-4H3,(H2,29,35)(H,30,31,32)

> <PUBCHEM_IUPAC_INCHIKEY>
DFMFCXGQTUDQBA-UHFFFAOYSA-N

> <PUBCHEM_XLOGP3_AA>
4.1

> <PUBCHEM_EXACT_MASS>
514.2259301

> <PUBCHEM_MOLECULAR_FORMULA>
C26H32ClFN6O2

> <PUBCHEM_MOLECULAR_WEIGHT>
515.0

> <PUBCHEM_SMILES>
CC(C)N1CCC(CC1)(C(=O)N)N(C)CC2=CC3=C(C=C2OC)N=CN=C3NC4=C(C(=CC=C4)Cl)F

> <PUBCHEM_OPENEYE_CAN_SMILES>
CC(C)N1CCC(CC1)(C(=O)N)N(C)CC2=CC3=C(C=C2OC)N=CN=C3NC4=C(C(=CC=C4)Cl)F

> <PUBCHEM_OPENEYE_ISO_SMILES>
CC(C)N1CCC(CC1)(C(=O)N)N(C)CC2=CC3=C(C=C2OC)N=CN=C3NC4=C(C(=CC=C4)Cl)F

> <PUBCHEM_CACTVS_TPSA>
96.6

> <PUBCHEM_MONOISOTOPIC_WEIGHT>
514.2259301

> <PUBCHEM_TOTAL_CHARGE>
0

> <PUBCHEM_HEAVY_ATOM_COUNT>
36

> <PUBCHEM_ATOM_DEF_STEREO_COUNT>
0

> <PUBCHEM_ATOM_UDEF_STEREO_COUNT>
0

> <PUBCHEM_BOND_DEF_STEREO_COUNT>
0

> <PUBCHEM_BOND_UDEF_STEREO_COUNT>
0

> <PUBCHEM_ISOTOPIC_ATOM_COUNT>
0

> <PUBCHEM_COMPONENT_COUNT>
1

> <PUBCHEM_CACTVS_TAUTO_COUNT>
-1

> <PUBCHEM_COORDINATE_TYPE>
1
5
255

> <PUBCHEM_BONDANNOTATIONS>
10  28  8
10  30  8
22  23  8
22  24  8
23  26  8
24  25  8
25  27  8
25  28  8
26  27  8
31  32  8
31  33  8
32  34  8
33  35  8
34  36  8
35  36  8
8  27  8
8  30  8

$$$$
