24900161
  -OEChem-03202506522D

 34 35  0     1  0  0  0  0  0999 V2000
    8.1203    2.1347    0.0000 O   0  0  0  0  0  0  0  0  0  0  0  0
    7.3053    0.1176    0.0000 O   0  0  0  0  0  0  0  0  0  0  0  0
    6.8671   -1.7307    0.0000 O   0  0  0  0  0  0  0  0  0  0  0  0
    3.4030   -1.7307    0.0000 O   0  0  0  0  0  0  0  0  0  0  0  0
    2.5369   -0.2307    0.0000 O   0  0  0  0  0  0  0  0  0  0  0  0
    3.4030    1.2693    0.0000 O   0  0  0  0  0  0  0  0  0  0  0  0
    6.3839    2.5356    0.0000 C   0  0  0  0  0  0  0  0  0  0  0  0
    7.1500    1.8928    0.0000 C   0  0  2  0  0  0  0  0  0  0  0  0
    5.5359    2.0056    0.0000 C   0  0  0  0  0  0  0  0  0  0  0  0
    5.7778    1.0354    0.0000 C   0  0  0  0  0  0  0  0  0  0  0  0
    6.7754    0.9656    0.0000 C   0  0  0  0  0  0  0  0  0  0  0  0
    5.1350    0.2693    0.0000 C   0  0  0  0  0  0  0  0  0  0  0  0
    4.6087    2.3803    0.0000 C   0  0  0  0  0  0  0  0  0  0  0  0
    4.2690   -0.2307    0.0000 C   0  0  0  0  0  0  0  0  0  0  0  0
    6.0010   -0.2307    0.0000 C   0  0  0  0  0  0  0  0  0  0  0  0
    4.2690   -1.2307    0.0000 C   0  0  0  0  0  0  0  0  0  0  0  0
    6.0010   -1.2307    0.0000 C   0  0  0  0  0  0  0  0  0  0  0  0
    5.1350   -1.7307    0.0000 C   0  0  0  0  0  0  0  0  0  0  0  0
    3.4030    0.2693    0.0000 C   0  0  0  0  0  0  0  0  0  0  0  0
    6.8671   -2.7307    0.0000 C   0  0  0  0  0  0  0  0  0  0  0  0
    6.8299    2.9663    0.0000 H   0  0  0  0  0  0  0  0  0  0  0  0
    6.0022    3.0241    0.0000 H   0  0  0  0  0  0  0  0  0  0  0  0
    7.2894    2.4969    0.0000 H   0  0  0  0  0  0  0  0  0  0  0  0
    4.8410    2.9551    0.0000 H   0  0  0  0  0  0  0  0  0  0  0  0
    4.0338    2.6125    0.0000 H   0  0  0  0  0  0  0  0  0  0  0  0
    4.3764    1.8054    0.0000 H   0  0  0  0  0  0  0  0  0  0  0  0
    6.5380    0.0793    0.0000 H   0  0  0  0  0  0  0  0  0  0  0  0
    8.2912    2.7307    0.0000 H   0  0  0  0  0  0  0  0  0  0  0  0
    5.1350   -2.3507    0.0000 H   0  0  0  0  0  0  0  0  0  0  0  0
    3.4030   -2.3507    0.0000 H   0  0  0  0  0  0  0  0  0  0  0  0
    6.2471   -2.7307    0.0000 H   0  0  0  0  0  0  0  0  0  0  0  0
    6.8671   -3.3507    0.0000 H   0  0  0  0  0  0  0  0  0  0  0  0
    7.4871   -2.7307    0.0000 H   0  0  0  0  0  0  0  0  0  0  0  0
    2.0000    0.0793    0.0000 H   0  0  0  0  0  0  0  0  0  0  0  0
  8  1  1  1  0  0  0
  1 28  1  0  0  0  0
  2 11  2  0  0  0  0
  3 17  1  0  0  0  0
  3 20  1  0  0  0  0
  4 16  1  0  0  0  0
  4 30  1  0  0  0  0
  5 19  1  0  0  0  0
  5 34  1  0  0  0  0
  6 19  2  0  0  0  0
  7  8  1  0  0  0  0
  7  9  1  0  0  0  0
  7 21  1  0  0  0  0
  7 22  1  0  0  0  0
  8 11  1  0  0  0  0
  8 23  1  0  0  0  0
  9 10  2  0  0  0  0
  9 13  1  0  0  0  0
 10 11  1  0  0  0  0
 10 12  1  0  0  0  0
 12 14  2  0  0  0  0
 12 15  1  0  0  0  0
 13 24  1  0  0  0  0
 13 25  1  0  0  0  0
 13 26  1  0  0  0  0
 14 16  1  0  0  0  0
 14 19  1  0  0  0  0
 15 17  2  0  0  0  0
 15 27  1  0  0  0  0
 16 18  2  0  0  0  0
 17 18  1  0  0  0  0
 18 29  1  0  0  0  0
 20 31  1  0  0  0  0
 20 32  1  0  0  0  0
 20 33  1  0  0  0  0
M  END
> <PUBCHEM_COMPOUND_CID>
24900161

> <PUBCHEM_COMPOUND_CANONICALIZED>
1

> <PUBCHEM_CACTVS_COMPLEXITY>
455

> <PUBCHEM_CACTVS_HBOND_ACCEPTOR>
6

> <PUBCHEM_CACTVS_HBOND_DONOR>
3

> <PUBCHEM_CACTVS_ROTATABLE_BOND>
3

> <PUBCHEM_CACTVS_SUBSKEYS>
AAADccBwOAAAAAAAAAAAAAAAAAAAAQAAAAAwAAAAAAAAAAABAAAAGgAACAAADBSgmAIyDoAABgCIAqDSCAICCAAkIAAAiAFGCMgMNzaGNRqAcWAl4BUIuQeI7vzuoAABCAAYAABAAAIQADAAAAAAAAAAAA==

> <PUBCHEM_IUPAC_OPENEYE_NAME>
2-hydroxy-6-[(4R)-4-hydroxy-2-methyl-5-oxo-cyclopenten-1-yl]-4-methoxy-benzoic acid

> <PUBCHEM_IUPAC_CAS_NAME>
2-hydroxy-6-[(4R)-4-hydroxy-2-methyl-5-oxo-1-cyclopentenyl]-4-methoxybenzoic acid

> <PUBCHEM_IUPAC_NAME_MARKUP>
2-hydroxy-6-[(4<I>R</I>)-4-hydroxy-2-methyl-5-oxocyclopenten-1-yl]-4-methoxybenzoic acid

> <PUBCHEM_IUPAC_NAME>
2-hydroxy-6-[(4R)-4-hydroxy-2-methyl-5-oxocyclopenten-1-yl]-4-methoxybenzoic acid

> <PUBCHEM_IUPAC_SYSTEMATIC_NAME>
4-methoxy-2-[(4R)-2-methyl-4-oxidanyl-5-oxidanylidene-cyclopenten-1-yl]-6-oxidanyl-benzoic acid

> <PUBCHEM_IUPAC_TRADITIONAL_NAME>
2-hydroxy-6-[(4R)-4-hydroxy-5-keto-2-methyl-cyclopenten-1-yl]-4-methoxy-benzoic acid

> <PUBCHEM_IUPAC_INCHI>
InChI=1S/C14H14O6/c1-6-3-10(16)13(17)11(6)8-4-7(20-2)5-9(15)12(8)14(18)19/h4-5,10,15-16H,3H2,1-2H3,(H,18,19)/t10-/m1/s1

> <PUBCHEM_IUPAC_INCHIKEY>
KZPGRZQYEBJXQJ-SNVBAGLBSA-N

> <PUBCHEM_XLOGP3_AA>
1.2

> <PUBCHEM_EXACT_MASS>
278.07903816

> <PUBCHEM_MOLECULAR_FORMULA>
C14H14O6

> <PUBCHEM_MOLECULAR_WEIGHT>
278.26

> <PUBCHEM_SMILES>
CC1=C(C(=O)[C@@H](C1)O)C2=C(C(=CC(=C2)OC)O)C(=O)O

> <PUBCHEM_OPENEYE_CAN_SMILES>
CC1=C(C(=O)C(C1)O)C2=C(C(=CC(=C2)OC)O)C(=O)O

> <PUBCHEM_OPENEYE_ISO_SMILES>
CC1=C(C(=O)[C@@H](C1)O)C2=C(C(=CC(=C2)OC)O)C(=O)O

> <PUBCHEM_CACTVS_TPSA>
104

> <PUBCHEM_MONOISOTOPIC_WEIGHT>
278.07903816

> <PUBCHEM_TOTAL_CHARGE>
0

> <PUBCHEM_HEAVY_ATOM_COUNT>
20

> <PUBCHEM_ATOM_DEF_STEREO_COUNT>
1

> <PUBCHEM_ATOM_UDEF_STEREO_COUNT>
0

> <PUBCHEM_BOND_DEF_STEREO_COUNT>
0

> <PUBCHEM_BOND_UDEF_STEREO_COUNT>
0

> <PUBCHEM_ISOTOPIC_ATOM_COUNT>
0

> <PUBCHEM_COMPONENT_COUNT>
1

> <PUBCHEM_CACTVS_TAUTO_COUNT>
-1

> <PUBCHEM_COORDINATE_TYPE>
1
5
255

> <PUBCHEM_BONDANNOTATIONS>
8  1  5
12  14  8
12  15  8
14  16  8
15  17  8
16  18  8
17  18  8

$$$$
