25207521
  -OEChem-03202506492D

 39 41  0     1  0  0  0  0  0999 V2000
    3.4279    1.6145    0.0000 O   0  0  0  0  0  0  0  0  0  0  0  0
    5.1350    3.3216    0.0000 O   0  0  0  0  0  0  0  0  0  0  0  0
    3.4030    0.9074    0.0000 O   0  0  0  0  0  0  0  0  0  0  0  0
    2.5369   -3.5926    0.0000 O   0  0  0  0  0  0  0  0  0  0  0  0
    5.1350   -0.0926    0.0000 N   0  0  0  0  0  0  0  0  0  0  0  0
    6.8421    1.6145    0.0000 N   0  0  0  0  0  0  0  0  0  0  0  0
    2.5369   -0.5926    0.0000 N   0  0  0  0  0  0  0  0  0  0  0  0
    8.3421    4.2126    0.0000 N   0  0  0  0  0  0  0  0  0  0  0  0
    4.2690   -0.5926    0.0000 C   0  0  3  0  0  0  0  0  0  0  0  0
    5.1350    0.9074    0.0000 C   0  0  0  0  0  0  0  0  0  0  0  0
    5.8421    1.6145    0.0000 C   0  0  0  0  0  0  0  0  0  0  0  0
    4.2690   -1.5926    0.0000 C   0  0  0  0  0  0  0  0  0  0  0  0
    4.4279    1.6145    0.0000 C   0  0  0  0  0  0  0  0  0  0  0  0
    5.1350    2.3216    0.0000 C   0  0  0  0  0  0  0  0  0  0  0  0
    3.4030   -0.0926    0.0000 C   0  0  0  0  0  0  0  0  0  0  0  0
    3.4030   -2.0926    0.0000 C   0  0  0  0  0  0  0  0  0  0  0  0
    5.1350   -2.0926    0.0000 C   0  0  0  0  0  0  0  0  0  0  0  0
    7.3421    2.4805    0.0000 C   0  0  0  0  0  0  0  0  0  0  0  0
    3.4030   -3.0926    0.0000 C   0  0  0  0  0  0  0  0  0  0  0  0
    5.1350   -3.0926    0.0000 C   0  0  0  0  0  0  0  0  0  0  0  0
    4.2690   -3.5926    0.0000 C   0  0  0  0  0  0  0  0  0  0  0  0
    8.3421    2.4805    0.0000 C   0  0  0  0  0  0  0  0  0  0  0  0
    6.8421    3.3466    0.0000 C   0  0  0  0  0  0  0  0  0  0  0  0
    8.8421    3.3466    0.0000 C   0  0  0  0  0  0  0  0  0  0  0  0
    7.3421    4.2126    0.0000 C   0  0  0  0  0  0  0  0  0  0  0  0
    4.2690    0.0274    0.0000 H   0  0  0  0  0  0  0  0  0  0  0  0
    5.6720   -0.4026    0.0000 H   0  0  0  0  0  0  0  0  0  0  0  0
    7.1521    1.0776    0.0000 H   0  0  0  0  0  0  0  0  0  0  0  0
    2.8660   -1.7826    0.0000 H   0  0  0  0  0  0  0  0  0  0  0  0
    5.6720   -1.7826    0.0000 H   0  0  0  0  0  0  0  0  0  0  0  0
    5.6720   -3.4026    0.0000 H   0  0  0  0  0  0  0  0  0  0  0  0
    4.2690   -4.2126    0.0000 H   0  0  0  0  0  0  0  0  0  0  0  0
    2.0000   -0.2826    0.0000 H   0  0  0  0  0  0  0  0  0  0  0  0
    2.5369   -1.2126    0.0000 H   0  0  0  0  0  0  0  0  0  0  0  0
    8.6521    1.9436    0.0000 H   0  0  0  0  0  0  0  0  0  0  0  0
    6.2221    3.3466    0.0000 H   0  0  0  0  0  0  0  0  0  0  0  0
    9.4621    3.3466    0.0000 H   0  0  0  0  0  0  0  0  0  0  0  0
    7.0321    4.7495    0.0000 H   0  0  0  0  0  0  0  0  0  0  0  0
    2.5369   -4.2126    0.0000 H   0  0  0  0  0  0  0  0  0  0  0  0
  1 13  2  0  0  0  0
  2 14  2  0  0  0  0
  3 15  2  0  0  0  0
  4 19  1  0  0  0  0
  4 39  1  0  0  0  0
  5  9  1  0  0  0  0
  5 10  1  0  0  0  0
  5 27  1  0  0  0  0
  6 11  1  0  0  0  0
  6 18  1  0  0  0  0
  6 28  1  0  0  0  0
  7 15  1  0  0  0  0
  7 33  1  0  0  0  0
  7 34  1  0  0  0  0
  8 24  2  0  0  0  0
  8 25  1  0  0  0  0
  9 12  1  0  0  0  0
  9 15  1  0  0  0  0
  9 26  1  0  0  0  0
 10 11  2  0  0  0  0
 10 13  1  0  0  0  0
 11 14  1  0  0  0  0
 12 16  2  0  0  0  0
 12 17  1  0  0  0  0
 13 14  1  0  0  0  0
 16 19  1  0  0  0  0
 16 29  1  0  0  0  0
 17 20  2  0  0  0  0
 17 30  1  0  0  0  0
 18 22  2  0  0  0  0
 18 23  1  0  0  0  0
 19 21  2  0  0  0  0
 20 21  1  0  0  0  0
 20 31  1  0  0  0  0
 21 32  1  0  0  0  0
 22 24  1  0  0  0  0
 22 35  1  0  0  0  0
 23 25  2  0  0  0  0
 23 36  1  0  0  0  0
 24 37  1  0  0  0  0
 25 38  1  0  0  0  0
M  END
> <PUBCHEM_COMPOUND_CID>
25207521

> <PUBCHEM_COMPOUND_CANONICALIZED>
1

> <PUBCHEM_CACTVS_COMPLEXITY>
597

> <PUBCHEM_CACTVS_HBOND_ACCEPTOR>
7

> <PUBCHEM_CACTVS_HBOND_DONOR>
4

> <PUBCHEM_CACTVS_ROTATABLE_BOND>
6

> <PUBCHEM_CACTVS_SUBSKEYS>
AAADccB7uAAAAAAAAAAAAAAAAABAAAAAAAA8QAAAAAAAAAABwAAAHgAQCAAADCzBmgQ8xpLIEgCoArV3VACCgCAxIiAI2KG+bNgIZnrC1fOUdAhk0BHI2Ue43LDOAAABAAAAAAAAAAIAAAAAAAAAAAAAAA==

> <PUBCHEM_IUPAC_OPENEYE_NAME>
2-[[3,4-dioxo-2-(4-pyridylamino)cyclobuten-1-yl]amino]-2-(3-hydroxyphenyl)acetamide

> <PUBCHEM_IUPAC_CAS_NAME>
2-[[3,4-dioxo-2-(pyridin-4-ylamino)-1-cyclobutenyl]amino]-2-(3-hydroxyphenyl)acetamide

> <PUBCHEM_IUPAC_NAME_MARKUP>
2-[[3,4-dioxo-2-(pyridin-4-ylamino)cyclobuten-1-yl]amino]-2-(3-hydroxyphenyl)acetamide

> <PUBCHEM_IUPAC_NAME>
2-[[3,4-dioxo-2-(pyridin-4-ylamino)cyclobuten-1-yl]amino]-2-(3-hydroxyphenyl)acetamide

> <PUBCHEM_IUPAC_SYSTEMATIC_NAME>
2-[[3,4-bis(oxidanylidene)-2-(pyridin-4-ylamino)cyclobuten-1-yl]amino]-2-(3-hydroxyphenyl)ethanamide

> <PUBCHEM_IUPAC_TRADITIONAL_NAME>
2-[[3,4-diketo-2-(4-pyridylamino)cyclobuten-1-yl]amino]-2-(3-hydroxyphenyl)acetamide

> <PUBCHEM_IUPAC_INCHI>
InChI=1S/C17H14N4O4/c18-17(25)12(9-2-1-3-11(22)8-9)21-14-13(15(23)16(14)24)20-10-4-6-19-7-5-10/h1-8,12,21-22H,(H2,18,25)(H,19,20)

> <PUBCHEM_IUPAC_INCHIKEY>
GPXKVULNYYNGDP-UHFFFAOYSA-N

> <PUBCHEM_XLOGP3_AA>
0.7

> <PUBCHEM_EXACT_MASS>
338.10150494

> <PUBCHEM_MOLECULAR_FORMULA>
C17H14N4O4

> <PUBCHEM_MOLECULAR_WEIGHT>
338.32

> <PUBCHEM_SMILES>
C1=CC(=CC(=C1)O)C(C(=O)N)NC2=C(C(=O)C2=O)NC3=CC=NC=C3

> <PUBCHEM_OPENEYE_CAN_SMILES>
C1=CC(=CC(=C1)O)C(C(=O)N)NC2=C(C(=O)C2=O)NC3=CC=NC=C3

> <PUBCHEM_OPENEYE_ISO_SMILES>
C1=CC(=CC(=C1)O)C(C(=O)N)NC2=C(C(=O)C2=O)NC3=CC=NC=C3

> <PUBCHEM_CACTVS_TPSA>
134

> <PUBCHEM_MONOISOTOPIC_WEIGHT>
338.10150494

> <PUBCHEM_TOTAL_CHARGE>
0

> <PUBCHEM_HEAVY_ATOM_COUNT>
25

> <PUBCHEM_ATOM_DEF_STEREO_COUNT>
0

> <PUBCHEM_ATOM_UDEF_STEREO_COUNT>
1

> <PUBCHEM_BOND_DEF_STEREO_COUNT>
0

> <PUBCHEM_BOND_UDEF_STEREO_COUNT>
0

> <PUBCHEM_ISOTOPIC_ATOM_COUNT>
0

> <PUBCHEM_COMPONENT_COUNT>
1

> <PUBCHEM_CACTVS_TAUTO_COUNT>
-1

> <PUBCHEM_COORDINATE_TYPE>
1
5
255

> <PUBCHEM_BONDANNOTATIONS>
10  11  8
10  13  8
11  14  8
12  16  8
12  17  8
13  14  8
16  19  8
17  20  8
18  22  8
18  23  8
19  21  8
20  21  8
22  24  8
23  25  8
8  24  8
8  25  8
9  15  3

$$$$
