9890746
  -OEChem-03192523152D

 58 62  0     0  0  0  0  0  0999 V2000
    5.4400   -1.6979    0.0000 S   0  0  0  0  0  0  0  0  0  0  0  0
    2.8660    2.8264    0.0000 O   0  0  0  0  0  0  0  0  0  0  0  0
    2.8660    4.8264    0.0000 O   0  0  0  0  0  0  0  0  0  0  0  0
    9.0672   -5.7120    0.0000 O   0  0  0  0  0  0  0  0  0  0  0  0
   10.4702   -4.9234    0.0000 O   0  0  0  0  0  0  0  0  0  0  0  0
    6.3465    1.7918    0.0000 N   0  0  0  0  0  0  0  0  0  0  0  0
    6.3233   -0.2080    0.0000 N   0  0  0  0  0  0  0  0  0  0  0  0
    7.1720   -1.7180    0.0000 N   0  0  0  0  0  0  0  0  0  0  0  0
    7.2641    3.3056    0.0000 N   0  0  0  0  0  0  0  0  0  0  0  0
    6.3580    4.8611    0.0000 N   0  0  0  0  0  0  0  0  0  0  0  0
    7.2067    1.2818    0.0000 C   0  0  0  0  0  0  0  0  0  0  0  0
    5.4747    1.3019    0.0000 C   0  0  0  0  0  0  0  0  0  0  0  0
    7.1951    0.2819    0.0000 C   0  0  0  0  0  0  0  0  0  0  0  0
    5.4632    0.3019    0.0000 C   0  0  0  0  0  0  0  0  0  0  0  0
    6.3580    2.7918    0.0000 C   0  0  0  0  0  0  0  0  0  0  0  0
    6.3118   -1.2080    0.0000 C   0  0  0  0  0  0  0  0  0  0  0  0
    5.4641    3.3264    0.0000 C   0  0  0  0  0  0  0  0  0  0  0  0
    5.4641    4.3264    0.0000 C   0  0  0  0  0  0  0  0  0  0  0  0
    7.1604   -2.7179    0.0000 C   0  0  0  0  0  0  0  0  0  0  0  0
    4.5981    2.8264    0.0000 C   0  0  0  0  0  0  0  0  0  0  0  0
    8.0206   -3.2279    0.0000 C   0  0  0  0  0  0  0  0  0  0  0  0
    4.5981    4.8264    0.0000 C   0  0  0  0  0  0  0  0  0  0  0  0
    3.7320    3.3264    0.0000 C   0  0  0  0  0  0  0  0  0  0  0  0
    7.2641    4.3472    0.0000 C   0  0  0  0  0  0  0  0  0  0  0  0
    3.7320    4.3264    0.0000 C   0  0  0  0  0  0  0  0  0  0  0  0
    8.0090   -4.2278    0.0000 C   0  0  0  0  0  0  0  0  0  0  0  0
    8.8924   -2.7379    0.0000 C   0  0  0  0  0  0  0  0  0  0  0  0
    8.8692   -4.7378    0.0000 C   0  0  0  0  0  0  0  0  0  0  0  0
    9.7410   -4.2478    0.0000 C   0  0  0  0  0  0  0  0  0  0  0  0
    9.7525   -3.2479    0.0000 C   0  0  0  0  0  0  0  0  0  0  0  0
   10.0546   -5.8264    0.0000 C   0  0  0  0  0  0  0  0  0  0  0  0
    2.0000    3.3264    0.0000 C   0  0  0  0  0  0  0  0  0  0  0  0
    2.8660    5.8264    0.0000 C   0  0  0  0  0  0  0  0  0  0  0  0
    7.8160    1.1671    0.0000 H   0  0  0  0  0  0  0  0  0  0  0  0
    7.4254    1.8620    0.0000 H   0  0  0  0  0  0  0  0  0  0  0  0
    5.2694    1.8869    0.0000 H   0  0  0  0  0  0  0  0  0  0  0  0
    4.8630    1.2013    0.0000 H   0  0  0  0  0  0  0  0  0  0  0  0
    7.4004   -0.3031    0.0000 H   0  0  0  0  0  0  0  0  0  0  0  0
    7.8069    0.3825    0.0000 H   0  0  0  0  0  0  0  0  0  0  0  0
    4.8539    0.4167    0.0000 H   0  0  0  0  0  0  0  0  0  0  0  0
    5.2444   -0.2782    0.0000 H   0  0  0  0  0  0  0  0  0  0  0  0
    7.7125   -1.4142    0.0000 H   0  0  0  0  0  0  0  0  0  0  0  0
    6.5511   -2.6032    0.0000 H   0  0  0  0  0  0  0  0  0  0  0  0
    6.9416   -3.2980    0.0000 H   0  0  0  0  0  0  0  0  0  0  0  0
    4.5981    2.2064    0.0000 H   0  0  0  0  0  0  0  0  0  0  0  0
    4.5981    5.4464    0.0000 H   0  0  0  0  0  0  0  0  0  0  0  0
    7.7998    4.6593    0.0000 H   0  0  0  0  0  0  0  0  0  0  0  0
    7.4686   -4.5316    0.0000 H   0  0  0  0  0  0  0  0  0  0  0  0
    8.8995   -2.1180    0.0000 H   0  0  0  0  0  0  0  0  0  0  0  0
   10.2930   -2.9441    0.0000 H   0  0  0  0  0  0  0  0  0  0  0  0
    9.9189   -6.4314    0.0000 H   0  0  0  0  0  0  0  0  0  0  0  0
   10.6420   -6.0250    0.0000 H   0  0  0  0  0  0  0  0  0  0  0  0
    2.3100    3.8634    0.0000 H   0  0  0  0  0  0  0  0  0  0  0  0
    1.4631    3.6364    0.0000 H   0  0  0  0  0  0  0  0  0  0  0  0
    1.6900    2.7895    0.0000 H   0  0  0  0  0  0  0  0  0  0  0  0
    3.4860    5.8264    0.0000 H   0  0  0  0  0  0  0  0  0  0  0  0
    2.8660    6.4464    0.0000 H   0  0  0  0  0  0  0  0  0  0  0  0
    2.2460    5.8264    0.0000 H   0  0  0  0  0  0  0  0  0  0  0  0
  1 16  2  0  0  0  0
  2 23  1  0  0  0  0
  2 32  1  0  0  0  0
  3 25  1  0  0  0  0
  3 33  1  0  0  0  0
  4 28  1  0  0  0  0
  4 31  1  0  0  0  0
  5 29  1  0  0  0  0
  5 31  1  0  0  0  0
  6 11  1  0  0  0  0
  6 12  1  0  0  0  0
  6 15  1  0  0  0  0
  7 13  1  0  0  0  0
  7 14  1  0  0  0  0
  7 16  1  0  0  0  0
  8 16  1  0  0  0  0
  8 19  1  0  0  0  0
  8 42  1  0  0  0  0
  9 15  2  0  0  0  0
  9 24  1  0  0  0  0
 10 18  1  0  0  0  0
 10 24  2  0  0  0  0
 11 13  1  0  0  0  0
 11 34  1  0  0  0  0
 11 35  1  0  0  0  0
 12 14  1  0  0  0  0
 12 36  1  0  0  0  0
 12 37  1  0  0  0  0
 13 38  1  0  0  0  0
 13 39  1  0  0  0  0
 14 40  1  0  0  0  0
 14 41  1  0  0  0  0
 15 17  1  0  0  0  0
 17 18  1  0  0  0  0
 17 20  2  0  0  0  0
 18 22  2  0  0  0  0
 19 21  1  0  0  0  0
 19 43  1  0  0  0  0
 19 44  1  0  0  0  0
 20 23  1  0  0  0  0
 20 45  1  0  0  0  0
 21 26  2  0  0  0  0
 21 27  1  0  0  0  0
 22 25  1  0  0  0  0
 22 46  1  0  0  0  0
 23 25  2  0  0  0  0
 24 47  1  0  0  0  0
 26 28  1  0  0  0  0
 26 48  1  0  0  0  0
 27 30  2  0  0  0  0
 27 49  1  0  0  0  0
 28 29  2  0  0  0  0
 29 30  1  0  0  0  0
 30 50  1  0  0  0  0
 31 51  1  0  0  0  0
 31 52  1  0  0  0  0
 32 53  1  0  0  0  0
 32 54  1  0  0  0  0
 32 55  1  0  0  0  0
 33 56  1  0  0  0  0
 33 57  1  0  0  0  0
 33 58  1  0  0  0  0
M  END
> <PUBCHEM_COMPOUND_CID>
9890746

> <PUBCHEM_COMPOUND_CANONICALIZED>
1

> <PUBCHEM_CACTVS_COMPLEXITY>
667

> <PUBCHEM_CACTVS_HBOND_ACCEPTOR>
8

> <PUBCHEM_CACTVS_HBOND_DONOR>
1

> <PUBCHEM_CACTVS_ROTATABLE_BOND>
5

> <PUBCHEM_CACTVS_SUBSKEYS>
AAADceB7uABAAAAAAAAAAAAAAAAAASAAAAA8eIEAAAAAAEix9AAAHgQQAAAADAzBngc3/vfIFACkAyZjZACCiCkxIqkJ2KA+7JidbqLE+du0NCpuwBvO6Cew0BMOIEABAgACQABAgAIEAASAAAAAAAAAAA==

> <PUBCHEM_IUPAC_OPENEYE_NAME>
N-(1,3-benzodioxol-5-ylmethyl)-4-(6,7-dimethoxyquinazolin-4-yl)piperazine-1-carbothioamide

> <PUBCHEM_IUPAC_CAS_NAME>
N-(1,3-benzodioxol-5-ylmethyl)-4-(6,7-dimethoxy-4-quinazolinyl)-1-piperazinecarbothioamide

> <PUBCHEM_IUPAC_NAME_MARKUP>
<I>N</I>-(1,3-benzodioxol-5-ylmethyl)-4-(6,7-dimethoxyquinazolin-4-yl)piperazine-1-carbothioamide

> <PUBCHEM_IUPAC_NAME>
N-(1,3-benzodioxol-5-ylmethyl)-4-(6,7-dimethoxyquinazolin-4-yl)piperazine-1-carbothioamide

> <PUBCHEM_IUPAC_SYSTEMATIC_NAME>
N-(1,3-benzodioxol-5-ylmethyl)-4-(6,7-dimethoxyquinazolin-4-yl)piperazine-1-carbothioamide

> <PUBCHEM_IUPAC_TRADITIONAL_NAME>
4-(6,7-dimethoxyquinazolin-4-yl)-N-piperonyl-piperazine-1-carbothioamide

> <PUBCHEM_IUPAC_INCHI>
InChI=1S/C23H25N5O4S/c1-29-19-10-16-17(11-20(19)30-2)25-13-26-22(16)27-5-7-28(8-6-27)23(33)24-12-15-3-4-18-21(9-15)32-14-31-18/h3-4,9-11,13H,5-8,12,14H2,1-2H3,(H,24,33)

> <PUBCHEM_IUPAC_INCHIKEY>
ORRFUYVNMZSYIC-UHFFFAOYSA-N

> <PUBCHEM_XLOGP3_AA>
2.9

> <PUBCHEM_EXACT_MASS>
467.16272547

> <PUBCHEM_MOLECULAR_FORMULA>
C23H25N5O4S

> <PUBCHEM_MOLECULAR_WEIGHT>
467.5

> <PUBCHEM_SMILES>
COC1=C(C=C2C(=C1)C(=NC=N2)N3CCN(CC3)C(=S)NCC4=CC5=C(C=C4)OCO5)OC

> <PUBCHEM_OPENEYE_CAN_SMILES>
COC1=C(C=C2C(=C1)C(=NC=N2)N3CCN(CC3)C(=S)NCC4=CC5=C(C=C4)OCO5)OC

> <PUBCHEM_OPENEYE_ISO_SMILES>
COC1=C(C=C2C(=C1)C(=NC=N2)N3CCN(CC3)C(=S)NCC4=CC5=C(C=C4)OCO5)OC

> <PUBCHEM_CACTVS_TPSA>
113

> <PUBCHEM_MONOISOTOPIC_WEIGHT>
467.16272547

> <PUBCHEM_TOTAL_CHARGE>
0

> <PUBCHEM_HEAVY_ATOM_COUNT>
33

> <PUBCHEM_ATOM_DEF_STEREO_COUNT>
0

> <PUBCHEM_ATOM_UDEF_STEREO_COUNT>
0

> <PUBCHEM_BOND_DEF_STEREO_COUNT>
0

> <PUBCHEM_BOND_UDEF_STEREO_COUNT>
0

> <PUBCHEM_ISOTOPIC_ATOM_COUNT>
0

> <PUBCHEM_COMPONENT_COUNT>
1

> <PUBCHEM_CACTVS_TAUTO_COUNT>
-1

> <PUBCHEM_COORDINATE_TYPE>
1
5
255

> <PUBCHEM_BONDANNOTATIONS>
10  18  8
10  24  8
15  17  8
17  18  8
17  20  8
18  22  8
20  23  8
21  26  8
21  27  8
22  25  8
23  25  8
26  28  8
27  30  8
28  29  8
29  30  8
9  15  8
9  24  8

$$$$
