44274749
  -OEChem-03202506582D

 60 66  0     1  0  0  0  0  0999 V2000
    5.0440    1.8557    0.0000 O   0  0  0  0  0  0  0  0  0  0  0  0
    2.4320   -0.5042    0.0000 O   0  0  0  0  0  0  0  0  0  0  0  0
    8.7332    3.1117    0.0000 N   0  0  3  0  0  0  0  0  0  0  0  0
    7.5353    0.0369    0.0000 N   0  0  0  0  0  0  0  0  0  0  0  0
    3.5511    0.8826    0.0000 N   0  0  0  0  0  0  0  0  0  0  0  0
    4.9777   -3.0568    0.0000 N   0  0  0  0  0  0  0  0  0  0  0  0
    7.5353    2.0369    0.0000 C   0  0  2  0  0  0  0  0  0  0  0  0
    8.4013    1.5369    0.0000 C   0  0  2  0  0  0  0  0  0  0  0  0
    7.7445    3.0087    0.0000 C   0  0  0  0  0  0  0  0  0  0  0  0
    9.1384    2.2039    0.0000 C   0  0  0  0  0  0  0  0  0  0  0  0
    6.6693    1.5369    0.0000 C   0  0  0  0  0  0  0  0  0  0  0  0
    8.4013    0.5369    0.0000 C   0  0  0  0  0  0  0  0  0  0  0  0
    6.6693    0.5369    0.0000 C   0  0  0  0  0  0  0  0  0  0  0  0
    5.9323   -0.1302    0.0000 C   0  0  0  0  0  0  0  0  0  0  0  0
    7.3261   -0.9350    0.0000 C   0  0  0  0  0  0  0  0  0  0  0  0
    6.3374   -1.0380    0.0000 C   0  0  0  0  0  0  0  0  0  0  0  0
    9.2332    3.9778    0.0000 C   0  0  0  0  0  0  0  0  0  0  0  0
    4.9538    0.0760    0.0000 C   0  0  0  0  0  0  0  0  0  0  0  0
    7.9469   -1.7637    0.0000 C   0  0  0  0  0  0  0  0  0  0  0  0
    5.9009   -1.9770    0.0000 C   0  0  0  0  0  0  0  0  0  0  0  0
    4.2118   -0.5944    0.0000 C   0  0  0  0  0  0  0  0  0  0  0  0
    4.5454    0.9888    0.0000 C   0  0  0  0  0  0  0  0  0  0  0  0
    7.5322   -2.7125    0.0000 C   0  0  0  0  0  0  0  0  0  0  0  0
    6.5023   -2.8199    0.0000 C   0  0  0  0  0  0  0  0  0  0  0  0
    4.3180   -1.5888    0.0000 C   0  0  0  0  0  0  0  0  0  0  0  0
    3.3449   -0.0959    0.0000 C   0  0  0  0  0  0  0  0  0  0  0  0
    3.5799   -2.2546    0.0000 C   0  0  0  0  0  0  0  0  0  0  0  0
    5.1802   -2.0836    0.0000 C   0  0  0  0  0  0  0  0  0  0  0  0
    3.9898   -3.1667    0.0000 C   0  0  0  0  0  0  0  0  0  0  0  0
    2.5850   -2.1535    0.0000 C   0  0  0  0  0  0  0  0  0  0  0  0
    3.4048   -3.9778    0.0000 C   0  0  0  0  0  0  0  0  0  0  0  0
    5.6507   -3.7965    0.0000 C   0  0  0  0  0  0  0  0  0  0  0  0
    2.0000   -2.9645    0.0000 C   0  0  0  0  0  0  0  0  0  0  0  0
    2.4099   -3.8767    0.0000 C   0  0  0  0  0  0  0  0  0  0  0  0
    6.8483    2.5374    0.0000 H   0  0  0  0  0  0  0  0  0  0  0  0
    9.1783    1.1921    0.0000 H   0  0  0  0  0  0  0  0  0  0  0  0
    7.7454    3.6287    0.0000 H   0  0  0  0  0  0  0  0  0  0  0  0
    7.1280    3.0747    0.0000 H   0  0  0  0  0  0  0  0  0  0  0  0
    9.5038    1.7031    0.0000 H   0  0  0  0  0  0  0  0  0  0  0  0
    9.6748    2.5147    0.0000 H   0  0  0  0  0  0  0  0  0  0  0  0
    6.4572    2.1195    0.0000 H   0  0  0  0  0  0  0  0  0  0  0  0
    6.0587    1.4292    0.0000 H   0  0  0  0  0  0  0  0  0  0  0  0
    8.6134   -0.0458    0.0000 H   0  0  0  0  0  0  0  0  0  0  0  0
    9.0119    0.6445    0.0000 H   0  0  0  0  0  0  0  0  0  0  0  0
    9.7702    3.6678    0.0000 H   0  0  0  0  0  0  0  0  0  0  0  0
    9.5432    4.5147    0.0000 H   0  0  0  0  0  0  0  0  0  0  0  0
    8.6963    4.2878    0.0000 H   0  0  0  0  0  0  0  0  0  0  0  0
    8.5627   -1.6923    0.0000 H   0  0  0  0  0  0  0  0  0  0  0  0
    5.2835   -2.0341    0.0000 H   0  0  0  0  0  0  0  0  0  0  0  0
    7.8981   -3.2130    0.0000 H   0  0  0  0  0  0  0  0  0  0  0  0
    6.2475   -3.3851    0.0000 H   0  0  0  0  0  0  0  0  0  0  0  0
    3.1354    1.3426    0.0000 H   0  0  0  0  0  0  0  0  0  0  0  0
    5.7457   -1.8294    0.0000 H   0  0  0  0  0  0  0  0  0  0  0  0
    2.3308   -1.5880    0.0000 H   0  0  0  0  0  0  0  0  0  0  0  0
    3.6589   -4.5433    0.0000 H   0  0  0  0  0  0  0  0  0  0  0  0
    5.1921   -4.2137    0.0000 H   0  0  0  0  0  0  0  0  0  0  0  0
    6.0680   -4.2551    0.0000 H   0  0  0  0  0  0  0  0  0  0  0  0
    6.1093   -3.3792    0.0000 H   0  0  0  0  0  0  0  0  0  0  0  0
    1.3832   -2.9019    0.0000 H   0  0  0  0  0  0  0  0  0  0  0  0
    2.0472   -4.3795    0.0000 H   0  0  0  0  0  0  0  0  0  0  0  0
  1 22  2  0  0  0  0
  2 26  2  0  0  0  0
  3  9  1  0  0  0  0
  3 10  1  0  0  0  0
  3 17  1  0  0  0  0
  4 12  1  0  0  0  0
  4 13  1  0  0  0  0
  4 15  1  0  0  0  0
  5 22  1  0  0  0  0
  5 26  1  0  0  0  0
  5 52  1  0  0  0  0
  6 28  1  0  0  0  0
  6 29  1  0  0  0  0
  6 32  1  0  0  0  0
  7  8  1  0  0  0  0
  7  9  1  0  0  0  0
  7 11  1  0  0  0  0
  7 35  1  6  0  0  0
  8 10  1  0  0  0  0
  8 12  1  0  0  0  0
  8 36  1  1  0  0  0
  9 37  1  0  0  0  0
  9 38  1  0  0  0  0
 10 39  1  0  0  0  0
 10 40  1  0  0  0  0
 11 13  1  0  0  0  0
 11 41  1  0  0  0  0
 11 42  1  0  0  0  0
 12 43  1  0  0  0  0
 12 44  1  0  0  0  0
 13 14  2  0  0  0  0
 14 16  1  0  0  0  0
 14 18  1  0  0  0  0
 15 16  1  0  0  0  0
 15 19  2  0  0  0  0
 16 20  2  0  0  0  0
 17 45  1  0  0  0  0
 17 46  1  0  0  0  0
 17 47  1  0  0  0  0
 18 21  2  0  0  0  0
 18 22  1  0  0  0  0
 19 23  1  0  0  0  0
 19 48  1  0  0  0  0
 20 24  1  0  0  0  0
 20 49  1  0  0  0  0
 21 25  1  0  0  0  0
 21 26  1  0  0  0  0
 23 24  2  0  0  0  0
 23 50  1  0  0  0  0
 24 51  1  0  0  0  0
 25 27  1  0  0  0  0
 25 28  2  0  0  0  0
 27 29  1  0  0  0  0
 27 30  2  0  0  0  0
 28 53  1  0  0  0  0
 29 31  2  0  0  0  0
 30 33  1  0  0  0  0
 30 54  1  0  0  0  0
 31 34  1  0  0  0  0
 31 55  1  0  0  0  0
 32 56  1  0  0  0  0
 32 57  1  0  0  0  0
 32 58  1  0  0  0  0
 33 34  2  0  0  0  0
 33 59  1  0  0  0  0
 34 60  1  0  0  0  0
M  END
> <PUBCHEM_COMPOUND_CID>
44274749

> <PUBCHEM_COMPOUND_CANONICALIZED>
1

> <PUBCHEM_CACTVS_COMPLEXITY>
916

> <PUBCHEM_CACTVS_HBOND_ACCEPTOR>
3

> <PUBCHEM_CACTVS_HBOND_DONOR>
1

> <PUBCHEM_CACTVS_ROTATABLE_BOND>
2

> <PUBCHEM_CACTVS_SUBSKEYS>
AAADceB7sAAAAAAAAAAAAAAAAAAAAWLFiAA8YIAAAAAAAFgB/gAAHgAQAAAADQjBngQ+wPPMEACoAzV3VACCgCAxAiAI2CE4ZNgIIPLA1ZGEIAhghCDIyQccicCegAAAAAACAAAAAAAAAAQAAAAAAAAAAA==

> <PUBCHEM_IUPAC_OPENEYE_NAME>
3-[(11R,15R)-13-methyl-1,13-diazatetracyclo[7.7.0.02,7.011,15]hexadeca-2,4,6,8-tetraen-8-yl]-4-(1-methylindol-3-yl)pyrrole-2,5-dione

> <PUBCHEM_IUPAC_CAS_NAME>
3-[(11R,15R)-13-methyl-1,13-diazatetracyclo[7.7.0.02,7.011,15]hexadeca-2,4,6,8-tetraen-8-yl]-4-(1-methyl-3-indolyl)pyrrole-2,5-dione

> <PUBCHEM_IUPAC_NAME_MARKUP>
3-[(11<I>R</I>,15<I>R</I>)-13-methyl-1,13-diazatetracyclo[7.7.0.0<SUP>2,7</SUP>.0<SUP>11,15</SUP>]hexadeca-2,4,6,8-tetraen-8-yl]-4-(1-methylindol-3-yl)pyrrole-2,5-dione

> <PUBCHEM_IUPAC_NAME>
3-[(11R,15R)-13-methyl-1,13-diazatetracyclo[7.7.0.02,7.011,15]hexadeca-2,4,6,8-tetraen-8-yl]-4-(1-methylindol-3-yl)pyrrole-2,5-dione

> <PUBCHEM_IUPAC_SYSTEMATIC_NAME>
3-[(11R,15R)-13-methyl-1,13-diazatetracyclo[7.7.0.02,7.011,15]hexadeca-2,4,6,8-tetraen-8-yl]-4-(1-methylindol-3-yl)pyrrole-2,5-dione

> <PUBCHEM_IUPAC_TRADITIONAL_NAME>
3-[(11R,15R)-13-methyl-1,13-diazatetracyclo[7.7.0.02,7.011,15]hexadeca-2,4,6,8-tetraen-8-yl]-4-(1-methylindol-3-yl)-3-pyrroline-2,5-quinone

> <PUBCHEM_IUPAC_INCHI>
InChI=1S/C28H26N4O2/c1-30-12-16-11-23-24(19-8-4-6-10-22(19)32(23)14-17(16)13-30)26-25(27(33)29-28(26)34)20-15-31(2)21-9-5-3-7-18(20)21/h3-10,15-17H,11-14H2,1-2H3,(H,29,33,34)/t16-,17+/m0/s1

> <PUBCHEM_IUPAC_INCHIKEY>
SAYMBMAHSBYKKR-DLBZAZTESA-N

> <PUBCHEM_XLOGP3_AA>
3.1

> <PUBCHEM_EXACT_MASS>
450.20557608

> <PUBCHEM_MOLECULAR_FORMULA>
C28H26N4O2

> <PUBCHEM_MOLECULAR_WEIGHT>
450.5

> <PUBCHEM_SMILES>
CN1C[C@@H]2CC3=C(C4=CC=CC=C4N3C[C@H]2C1)C5=C(C(=O)NC5=O)C6=CN(C7=CC=CC=C76)C

> <PUBCHEM_OPENEYE_CAN_SMILES>
CN1CC2CC3=C(C4=CC=CC=C4N3CC2C1)C5=C(C(=O)NC5=O)C6=CN(C7=CC=CC=C76)C

> <PUBCHEM_OPENEYE_ISO_SMILES>
CN1C[C@@H]2CC3=C(C4=CC=CC=C4N3C[C@H]2C1)C5=C(C(=O)NC5=O)C6=CN(C7=CC=CC=C76)C

> <PUBCHEM_CACTVS_TPSA>
59.3

> <PUBCHEM_MONOISOTOPIC_WEIGHT>
450.20557608

> <PUBCHEM_TOTAL_CHARGE>
0

> <PUBCHEM_HEAVY_ATOM_COUNT>
34

> <PUBCHEM_ATOM_DEF_STEREO_COUNT>
2

> <PUBCHEM_ATOM_UDEF_STEREO_COUNT>
0

> <PUBCHEM_BOND_DEF_STEREO_COUNT>
0

> <PUBCHEM_BOND_UDEF_STEREO_COUNT>
0

> <PUBCHEM_ISOTOPIC_ATOM_COUNT>
0

> <PUBCHEM_COMPONENT_COUNT>
1

> <PUBCHEM_CACTVS_TAUTO_COUNT>
-1

> <PUBCHEM_COORDINATE_TYPE>
1
5
255

> <PUBCHEM_BONDANNOTATIONS>
13  14  8
14  16  8
15  16  8
15  19  8
16  20  8
19  23  8
20  24  8
23  24  8
25  27  8
25  28  8
27  29  8
27  30  8
29  31  8
30  33  8
31  34  8
33  34  8
4  13  8
4  15  8
6  28  8
6  29  8
7  35  6
8  36  5

$$$$
