57991377
  -OEChem-03202504512D

 61 65  0     1  0  0  0  0  0999 V2000
    2.8660    7.5194    0.0000 O   0  0  0  0  0  0  0  0  0  0  0  0
    6.3301   -4.4806    0.0000 O   0  0  0  0  0  0  0  0  0  0  0  0
    6.2731   -6.5684    0.0000 N   0  0  0  0  0  0  0  0  0  0  0  0
    2.8660    5.5194    0.0000 N   0  0  0  0  0  0  0  0  0  0  0  0
    4.5981   -4.4806    0.0000 N   0  0  0  0  0  0  0  0  0  0  0  0
    2.8660    1.5194    0.0000 N   0  0  0  0  0  0  0  0  0  0  0  0
    3.7320    0.0194    0.0000 N   0  0  0  0  0  0  0  0  0  0  0  0
    4.5981    1.5194    0.0000 N   0  0  0  0  0  0  0  0  0  0  0  0
    5.4641   -5.9806    0.0000 C   0  0  2  0  0  0  0  0  0  0  0  0
    4.6551   -6.5684    0.0000 C   0  0  0  0  0  0  0  0  0  0  0  0
    4.9641   -7.5194    0.0000 C   0  0  0  0  0  0  0  0  0  0  0  0
    5.9641   -7.5194    0.0000 C   0  0  0  0  0  0  0  0  0  0  0  0
    5.4641   -4.9806    0.0000 C   0  0  0  0  0  0  0  0  0  0  0  0
    3.7320    6.0194    0.0000 C   0  0  0  0  0  0  0  0  0  0  0  0
    2.0000    6.0194    0.0000 C   0  0  0  0  0  0  0  0  0  0  0  0
    3.7320    7.0194    0.0000 C   0  0  0  0  0  0  0  0  0  0  0  0
    2.0000    7.0194    0.0000 C   0  0  0  0  0  0  0  0  0  0  0  0
    2.8660    4.5194    0.0000 C   0  0  0  0  0  0  0  0  0  0  0  0
    4.5981   -3.4806    0.0000 C   0  0  0  0  0  0  0  0  0  0  0  0
    3.7320    4.0194    0.0000 C   0  0  0  0  0  0  0  0  0  0  0  0
    2.0000    4.0194    0.0000 C   0  0  0  0  0  0  0  0  0  0  0  0
    5.4641   -2.9806    0.0000 C   0  0  0  0  0  0  0  0  0  0  0  0
    3.7320   -2.9806    0.0000 C   0  0  0  0  0  0  0  0  0  0  0  0
    2.8660    2.5194    0.0000 C   0  0  0  0  0  0  0  0  0  0  0  0
    3.7320    3.0194    0.0000 C   0  0  0  0  0  0  0  0  0  0  0  0
    2.0000    3.0194    0.0000 C   0  0  0  0  0  0  0  0  0  0  0  0
    4.5981   -1.4806    0.0000 C   0  0  0  0  0  0  0  0  0  0  0  0
    5.4641   -1.9806    0.0000 C   0  0  0  0  0  0  0  0  0  0  0  0
    3.7320   -1.9806    0.0000 C   0  0  0  0  0  0  0  0  0  0  0  0
    4.5981   -0.4806    0.0000 C   0  0  0  0  0  0  0  0  0  0  0  0
    3.7320    1.0194    0.0000 C   0  0  0  0  0  0  0  0  0  0  0  0
    5.4641    0.0194    0.0000 C   0  0  0  0  0  0  0  0  0  0  0  0
    5.4641    1.0194    0.0000 C   0  0  0  0  0  0  0  0  0  0  0  0
    6.0165   -5.6991    0.0000 H   0  0  0  0  0  0  0  0  0  0  0  0
    4.3451   -6.0314    0.0000 H   0  0  0  0  0  0  0  0  0  0  0  0
    4.0887   -6.8205    0.0000 H   0  0  0  0  0  0  0  0  0  0  0  0
    4.3576   -7.6483    0.0000 H   0  0  0  0  0  0  0  0  0  0  0  0
    5.0289   -8.1360    0.0000 H   0  0  0  0  0  0  0  0  0  0  0  0
    5.8993   -8.1360    0.0000 H   0  0  0  0  0  0  0  0  0  0  0  0
    6.5706   -7.6483    0.0000 H   0  0  0  0  0  0  0  0  0  0  0  0
    6.8628   -6.3768    0.0000 H   0  0  0  0  0  0  0  0  0  0  0  0
    3.9441    5.4368    0.0000 H   0  0  0  0  0  0  0  0  0  0  0  0
    4.3426    6.1271    0.0000 H   0  0  0  0  0  0  0  0  0  0  0  0
    1.3894    6.1271    0.0000 H   0  0  0  0  0  0  0  0  0  0  0  0
    1.7880    5.4368    0.0000 H   0  0  0  0  0  0  0  0  0  0  0  0
    4.0611   -4.7906    0.0000 H   0  0  0  0  0  0  0  0  0  0  0  0
    4.3426    6.9118    0.0000 H   0  0  0  0  0  0  0  0  0  0  0  0
    3.9441    7.6020    0.0000 H   0  0  0  0  0  0  0  0  0  0  0  0
    1.7880    7.6020    0.0000 H   0  0  0  0  0  0  0  0  0  0  0  0
    1.3894    6.9118    0.0000 H   0  0  0  0  0  0  0  0  0  0  0  0
    4.2690    4.3294    0.0000 H   0  0  0  0  0  0  0  0  0  0  0  0
    1.4631    4.3294    0.0000 H   0  0  0  0  0  0  0  0  0  0  0  0
    6.0010   -3.2906    0.0000 H   0  0  0  0  0  0  0  0  0  0  0  0
    3.1951   -3.2906    0.0000 H   0  0  0  0  0  0  0  0  0  0  0  0
    4.2690    2.7094    0.0000 H   0  0  0  0  0  0  0  0  0  0  0  0
    1.4631    2.7094    0.0000 H   0  0  0  0  0  0  0  0  0  0  0  0
    6.0010   -1.6706    0.0000 H   0  0  0  0  0  0  0  0  0  0  0  0
    3.1951   -1.6706    0.0000 H   0  0  0  0  0  0  0  0  0  0  0  0
    2.3291    1.2094    0.0000 H   0  0  0  0  0  0  0  0  0  0  0  0
    6.0010   -0.2906    0.0000 H   0  0  0  0  0  0  0  0  0  0  0  0
    6.0010    1.3294    0.0000 H   0  0  0  0  0  0  0  0  0  0  0  0
  1 16  1  0  0  0  0
  1 17  1  0  0  0  0
  2 13  2  0  0  0  0
  3  9  1  0  0  0  0
  3 12  1  0  0  0  0
  3 41  1  0  0  0  0
  4 14  1  0  0  0  0
  4 15  1  0  0  0  0
  4 18  1  0  0  0  0
  5 13  1  0  0  0  0
  5 19  1  0  0  0  0
  5 46  1  0  0  0  0
  6 24  1  0  0  0  0
  6 31  1  0  0  0  0
  6 59  1  0  0  0  0
  7 30  2  0  0  0  0
  7 31  1  0  0  0  0
  8 31  2  0  0  0  0
  8 33  1  0  0  0  0
  9 10  1  0  0  0  0
  9 13  1  6  0  0  0
  9 34  1  0  0  0  0
 10 11  1  0  0  0  0
 10 35  1  0  0  0  0
 10 36  1  0  0  0  0
 11 12  1  0  0  0  0
 11 37  1  0  0  0  0
 11 38  1  0  0  0  0
 12 39  1  0  0  0  0
 12 40  1  0  0  0  0
 14 16  1  0  0  0  0
 14 42  1  0  0  0  0
 14 43  1  0  0  0  0
 15 17  1  0  0  0  0
 15 44  1  0  0  0  0
 15 45  1  0  0  0  0
 16 47  1  0  0  0  0
 16 48  1  0  0  0  0
 17 49  1  0  0  0  0
 17 50  1  0  0  0  0
 18 20  2  0  0  0  0
 18 21  1  0  0  0  0
 19 22  2  0  0  0  0
 19 23  1  0  0  0  0
 20 25  1  0  0  0  0
 20 51  1  0  0  0  0
 21 26  2  0  0  0  0
 21 52  1  0  0  0  0
 22 28  1  0  0  0  0
 22 53  1  0  0  0  0
 23 29  2  0  0  0  0
 23 54  1  0  0  0  0
 24 25  2  0  0  0  0
 24 26  1  0  0  0  0
 25 55  1  0  0  0  0
 26 56  1  0  0  0  0
 27 28  2  0  0  0  0
 27 29  1  0  0  0  0
 27 30  1  0  0  0  0
 28 57  1  0  0  0  0
 29 58  1  0  0  0  0
 30 32  1  0  0  0  0
 32 33  2  0  0  0  0
 32 60  1  0  0  0  0
 33 61  1  0  0  0  0
M  END
> <PUBCHEM_COMPOUND_CID>
57991377

> <PUBCHEM_COMPOUND_CANONICALIZED>
1

> <PUBCHEM_CACTVS_COMPLEXITY>
614

> <PUBCHEM_CACTVS_HBOND_ACCEPTOR>
7

> <PUBCHEM_CACTVS_HBOND_DONOR>
3

> <PUBCHEM_CACTVS_ROTATABLE_BOND>
6

> <PUBCHEM_CACTVS_SUBSKEYS>
AAADceB7sAAAAAAAAAAAAAAAAAAAAWAAAAA8eIEAAAAAAAAB0AAAHgAQAAAADCjhngY90JfIFACoAzV3dACCgCkxAqAJ2KG4ZJiKaLLA2fGXJAholALYyCcYgYAOCACAAAAAAAAQAQAAAAAAAAAAAAAAAA==

> <PUBCHEM_IUPAC_OPENEYE_NAME>
(2R)-N-[4-[2-(4-morpholinoanilino)pyrimidin-4-yl]phenyl]pyrrolidine-2-carboxamide

> <PUBCHEM_IUPAC_CAS_NAME>
(2R)-N-[4-[2-[4-(4-morpholinyl)anilino]-4-pyrimidinyl]phenyl]-2-pyrrolidinecarboxamide

> <PUBCHEM_IUPAC_NAME_MARKUP>
(2<I>R</I>)-<I>N</I>-[4-[2-(4-morpholin-4-ylanilino)pyrimidin-4-yl]phenyl]pyrrolidine-2-carboxamide

> <PUBCHEM_IUPAC_NAME>
(2R)-N-[4-[2-(4-morpholin-4-ylanilino)pyrimidin-4-yl]phenyl]pyrrolidine-2-carboxamide

> <PUBCHEM_IUPAC_SYSTEMATIC_NAME>
(2R)-N-[4-[2-[(4-morpholin-4-ylphenyl)amino]pyrimidin-4-yl]phenyl]pyrrolidine-2-carboxamide

> <PUBCHEM_IUPAC_TRADITIONAL_NAME>
(2R)-N-[4-[2-(4-morpholinoanilino)pyrimidin-4-yl]phenyl]pyrrolidine-2-carboxamide

> <PUBCHEM_IUPAC_INCHI>
InChI=1S/C25H28N6O2/c32-24(23-2-1-12-26-23)28-19-5-3-18(4-6-19)22-11-13-27-25(30-22)29-20-7-9-21(10-8-20)31-14-16-33-17-15-31/h3-11,13,23,26H,1-2,12,14-17H2,(H,28,32)(H,27,29,30)/t23-/m1/s1

> <PUBCHEM_IUPAC_INCHIKEY>
ISOCDPQFIXDIMS-HSZRJFAPSA-N

> <PUBCHEM_XLOGP3_AA>
2.8

> <PUBCHEM_EXACT_MASS>
444.22737416

> <PUBCHEM_MOLECULAR_FORMULA>
C25H28N6O2

> <PUBCHEM_MOLECULAR_WEIGHT>
444.5

> <PUBCHEM_SMILES>
C1C[C@@H](NC1)C(=O)NC2=CC=C(C=C2)C3=NC(=NC=C3)NC4=CC=C(C=C4)N5CCOCC5

> <PUBCHEM_OPENEYE_CAN_SMILES>
C1CC(NC1)C(=O)NC2=CC=C(C=C2)C3=NC(=NC=C3)NC4=CC=C(C=C4)N5CCOCC5

> <PUBCHEM_OPENEYE_ISO_SMILES>
C1C[C@@H](NC1)C(=O)NC2=CC=C(C=C2)C3=NC(=NC=C3)NC4=CC=C(C=C4)N5CCOCC5

> <PUBCHEM_CACTVS_TPSA>
91.4

> <PUBCHEM_MONOISOTOPIC_WEIGHT>
444.22737416

> <PUBCHEM_TOTAL_CHARGE>
0

> <PUBCHEM_HEAVY_ATOM_COUNT>
33

> <PUBCHEM_ATOM_DEF_STEREO_COUNT>
1

> <PUBCHEM_ATOM_UDEF_STEREO_COUNT>
0

> <PUBCHEM_BOND_DEF_STEREO_COUNT>
0

> <PUBCHEM_BOND_UDEF_STEREO_COUNT>
0

> <PUBCHEM_ISOTOPIC_ATOM_COUNT>
0

> <PUBCHEM_COMPONENT_COUNT>
1

> <PUBCHEM_CACTVS_TAUTO_COUNT>
-1

> <PUBCHEM_COORDINATE_TYPE>
1
5
255

> <PUBCHEM_BONDANNOTATIONS>
18  20  8
18  21  8
19  22  8
19  23  8
20  25  8
21  26  8
22  28  8
23  29  8
24  25  8
24  26  8
27  28  8
27  29  8
30  32  8
32  33  8
7  30  8
7  31  8
8  31  8
8  33  8
9  13  6

$$$$
