3449643
  -OEChem-03202503432D

 44 47  0     1  0  0  0  0  0999 V2000
    7.1270    0.0403    0.0000 S   0  0  0  0  0  0  0  0  0  0  0  0
    3.4782   -1.1495    0.0000 O   0  0  0  0  0  0  0  0  0  0  0  0
    6.1808   -1.6550    0.0000 O   0  0  0  0  0  0  0  0  0  0  0  0
    7.4376    2.6002    0.0000 O   0  0  0  0  0  0  0  0  0  0  0  0
    4.4487   -1.6550    0.0000 O   0  0  0  0  0  0  0  0  0  0  0  0
    8.8038   -0.9346    0.0000 O   0  0  0  0  0  0  0  0  0  0  0  0
    6.1808    1.3450    0.0000 N   0  0  0  0  0  0  0  0  0  0  0  0
    5.3147    2.8450    0.0000 N   0  0  0  0  0  0  0  0  0  0  0  0
    2.7166    2.3450    0.0000 N   0  0  0  0  0  0  0  0  0  0  0  0
    4.4487    0.3450    0.0000 C   0  0  3  0  0  0  0  0  0  0  0  0
    5.3147   -0.1550    0.0000 C   0  0  0  0  0  0  0  0  0  0  0  0
    6.1808    0.3450    0.0000 C   0  0  0  0  0  0  0  0  0  0  0  0
    4.4487    1.3450    0.0000 C   0  0  0  0  0  0  0  0  0  0  0  0
    5.3147    1.8450    0.0000 C   0  0  0  0  0  0  0  0  0  0  0  0
    3.5827   -0.1550    0.0000 C   0  0  0  0  0  0  0  0  0  0  0  0
    7.1270    1.6497    0.0000 C   0  0  0  0  0  0  0  0  0  0  0  0
    7.7106    0.8450    0.0000 C   0  0  0  0  0  0  0  0  0  0  0  0
    5.3147   -1.1550    0.0000 C   0  0  0  0  0  0  0  0  0  0  0  0
    2.6691    0.2517    0.0000 C   0  0  0  0  0  0  0  0  0  0  0  0
    3.5827    1.8450    0.0000 C   0  0  0  0  0  0  0  0  0  0  0  0
    8.7106    0.8450    0.0000 C   0  0  0  0  0  0  0  0  0  0  0  0
    2.0000   -0.4914    0.0000 C   0  0  0  0  0  0  0  0  0  0  0  0
    2.5000   -1.3574    0.0000 C   0  0  0  0  0  0  0  0  0  0  0  0
    9.2106   -0.0210    0.0000 C   0  0  0  0  0  0  0  0  0  0  0  0
    6.1808   -2.6550    0.0000 C   0  0  0  0  0  0  0  0  0  0  0  0
   10.2051   -0.1256    0.0000 C   0  0  0  0  0  0  0  0  0  0  0  0
    7.0468   -3.1550    0.0000 C   0  0  0  0  0  0  0  0  0  0  0  0
   10.4130   -1.1037    0.0000 C   0  0  0  0  0  0  0  0  0  0  0  0
    9.5470   -1.6037    0.0000 C   0  0  0  0  0  0  0  0  0  0  0  0
    3.9118    0.6550    0.0000 H   0  0  0  0  0  0  0  0  0  0  0  0
    2.5402    0.8582    0.0000 H   0  0  0  0  0  0  0  0  0  0  0  0
    4.7778    3.1550    0.0000 H   0  0  0  0  0  0  0  0  0  0  0  0
    5.8517    3.1550    0.0000 H   0  0  0  0  0  0  0  0  0  0  0  0
    9.0206    1.3819    0.0000 H   0  0  0  0  0  0  0  0  0  0  0  0
    1.3834   -0.4266    0.0000 H   0  0  0  0  0  0  0  0  0  0  0  0
    2.2478   -1.9238    0.0000 H   0  0  0  0  0  0  0  0  0  0  0  0
    5.5702   -2.5473    0.0000 H   0  0  0  0  0  0  0  0  0  0  0  0
    5.9687   -3.2376    0.0000 H   0  0  0  0  0  0  0  0  0  0  0  0
   10.6200    0.3352    0.0000 H   0  0  0  0  0  0  0  0  0  0  0  0
    6.7368   -3.6919    0.0000 H   0  0  0  0  0  0  0  0  0  0  0  0
    7.5837   -3.4650    0.0000 H   0  0  0  0  0  0  0  0  0  0  0  0
    7.3568   -2.6181    0.0000 H   0  0  0  0  0  0  0  0  0  0  0  0
   10.9794   -1.3559    0.0000 H   0  0  0  0  0  0  0  0  0  0  0  0
    9.4822   -2.2203    0.0000 H   0  0  0  0  0  0  0  0  0  0  0  0
  1 12  1  0  0  0  0
  1 17  1  0  0  0  0
  2 15  1  0  0  0  0
  2 23  1  0  0  0  0
  3 18  1  0  0  0  0
  3 25  1  0  0  0  0
  4 16  2  0  0  0  0
  5 18  2  0  0  0  0
  6 24  1  0  0  0  0
  6 29  1  0  0  0  0
  7 12  1  0  0  0  0
  7 14  1  0  0  0  0
  7 16  1  0  0  0  0
  8 14  1  0  0  0  0
  8 32  1  0  0  0  0
  8 33  1  0  0  0  0
  9 20  3  0  0  0  0
 10 11  1  0  0  0  0
 10 13  1  0  0  0  0
 10 15  1  0  0  0  0
 10 30  1  0  0  0  0
 11 12  2  0  0  0  0
 11 18  1  0  0  0  0
 13 14  2  0  0  0  0
 13 20  1  0  0  0  0
 15 19  2  0  0  0  0
 16 17  1  0  0  0  0
 17 21  2  3  0  0  0
 19 22  1  0  0  0  0
 19 31  1  0  0  0  0
 21 24  1  0  0  0  0
 21 34  1  0  0  0  0
 22 23  2  0  0  0  0
 22 35  1  0  0  0  0
 23 36  1  0  0  0  0
 24 26  2  0  0  0  0
 25 27  1  0  0  0  0
 25 37  1  0  0  0  0
 25 38  1  0  0  0  0
 26 28  1  0  0  0  0
 26 39  1  0  0  0  0
 27 40  1  0  0  0  0
 27 41  1  0  0  0  0
 27 42  1  0  0  0  0
 28 29  2  0  0  0  0
 28 43  1  0  0  0  0
 29 44  1  0  0  0  0
M  END
> <PUBCHEM_COMPOUND_CID>
3449643

> <PUBCHEM_COMPOUND_CANONICALIZED>
1

> <PUBCHEM_CACTVS_COMPLEXITY>
884

> <PUBCHEM_CACTVS_HBOND_ACCEPTOR>
8

> <PUBCHEM_CACTVS_HBOND_DONOR>
1

> <PUBCHEM_CACTVS_ROTATABLE_BOND>
5

> <PUBCHEM_CACTVS_SUBSKEYS>
AAADccB7OABAAAAAAAAAAAAAAAAAAWJEgAAgAAAAAAAAAEAB4AAAHgQQAAAADQSh0AIzDINABEiYBqnS2ACiCABkIBAIiAEGCMiMpjKENRqCGSCkwRMIqc/LyDCOAAAAAAAAAAAAAAAAAAAAAAAAAAAAAA==

> <PUBCHEM_IUPAC_OPENEYE_NAME>
ethyl 5-amino-6-cyano-7-(2-furyl)-2-(2-furylmethylene)-3-oxo-7H-thiazolo[3,2-a]pyridine-8-carboxylate

> <PUBCHEM_IUPAC_CAS_NAME>
5-amino-6-cyano-7-(2-furanyl)-2-(2-furanylmethylidene)-3-oxo-7H-thiazolo[3,2-a]pyridine-8-carboxylic acid ethyl ester

> <PUBCHEM_IUPAC_NAME_MARKUP>
ethyl 5-amino-6-cyano-7-(furan-2-yl)-2-(furan-2-ylmethylidene)-3-oxo-7<I>H</I>-[1,3]thiazolo[3,2-a]pyridine-8-carboxylate

> <PUBCHEM_IUPAC_NAME>
ethyl 5-amino-6-cyano-7-(furan-2-yl)-2-(furan-2-ylmethylidene)-3-oxo-7H-[1,3]thiazolo[3,2-a]pyridine-8-carboxylate

> <PUBCHEM_IUPAC_SYSTEMATIC_NAME>
ethyl 5-azanyl-6-cyano-7-(furan-2-yl)-2-(furan-2-ylmethylidene)-3-oxidanylidene-7H-[1,3]thiazolo[3,2-a]pyridine-8-carboxylate

> <PUBCHEM_IUPAC_TRADITIONAL_NAME>
5-amino-6-cyano-2-(2-furfurylidene)-7-(2-furyl)-3-keto-7H-thiazolo[3,2-a]pyridine-8-carboxylic acid ethyl ester

> <PUBCHEM_IUPAC_INCHI>
InChI=1S/C20H15N3O5S/c1-2-26-20(25)16-15(13-6-4-8-28-13)12(10-21)17(22)23-18(24)14(29-19(16)23)9-11-5-3-7-27-11/h3-9,15H,2,22H2,1H3

> <PUBCHEM_IUPAC_INCHIKEY>
NSYXCWYWACQNOH-UHFFFAOYSA-N

> <PUBCHEM_XLOGP3_AA>
2.3

> <PUBCHEM_EXACT_MASS>
409.07324176

> <PUBCHEM_MOLECULAR_FORMULA>
C20H15N3O5S

> <PUBCHEM_MOLECULAR_WEIGHT>
409.4

> <PUBCHEM_SMILES>
CCOC(=O)C1=C2N(C(=C(C1C3=CC=CO3)C#N)N)C(=O)C(=CC4=CC=CO4)S2

> <PUBCHEM_OPENEYE_CAN_SMILES>
CCOC(=O)C1=C2N(C(=C(C1C3=CC=CO3)C#N)N)C(=O)C(=CC4=CC=CO4)S2

> <PUBCHEM_OPENEYE_ISO_SMILES>
CCOC(=O)C1=C2N(C(=C(C1C3=CC=CO3)C#N)N)C(=O)C(=CC4=CC=CO4)S2

> <PUBCHEM_CACTVS_TPSA>
148

> <PUBCHEM_MONOISOTOPIC_WEIGHT>
409.07324176

> <PUBCHEM_TOTAL_CHARGE>
0

> <PUBCHEM_HEAVY_ATOM_COUNT>
29

> <PUBCHEM_ATOM_DEF_STEREO_COUNT>
0

> <PUBCHEM_ATOM_UDEF_STEREO_COUNT>
1

> <PUBCHEM_BOND_DEF_STEREO_COUNT>
0

> <PUBCHEM_BOND_UDEF_STEREO_COUNT>
1

> <PUBCHEM_ISOTOPIC_ATOM_COUNT>
0

> <PUBCHEM_COMPONENT_COUNT>
1

> <PUBCHEM_CACTVS_TAUTO_COUNT>
-1

> <PUBCHEM_COORDINATE_TYPE>
1
5
255

> <PUBCHEM_BONDANNOTATIONS>
1  12  8
1  17  8
10  15  3
15  19  8
16  17  8
17  21  1
19  22  8
2  15  8
2  23  8
22  23  8
24  26  8
26  28  8
28  29  8
6  24  8
6  29  8
7  12  8
7  16  8

$$$$
