49830491
  -OEChem-03202501292D

 42 45  0     0  0  0  0  0  0999 V2000
    6.3301    1.1970    0.0000 O   0  0  0  0  0  0  0  0  0  0  0  0
    9.8744   -3.6077    0.0000 N   0  0  0  0  0  0  0  0  0  0  0  0
    4.5981    1.1970    0.0000 N   0  0  0  0  0  0  0  0  0  0  0  0
    8.0622   -3.8030    0.0000 N   0  0  0  0  0  0  0  0  0  0  0  0
    7.1962   -2.3030    0.0000 C   0  0  0  0  0  0  0  0  0  0  0  0
    6.3301   -1.8030    0.0000 C   0  0  0  0  0  0  0  0  0  0  0  0
    8.9282   -2.3030    0.0000 C   0  0  0  0  0  0  0  0  0  0  0  0
    8.0622   -1.8030    0.0000 C   0  0  0  0  0  0  0  0  0  0  0  0
    8.9282   -3.3030    0.0000 C   0  0  0  0  0  0  0  0  0  0  0  0
    5.4641   -0.3030    0.0000 C   0  0  0  0  0  0  0  0  0  0  0  0
    6.3301   -0.8030    0.0000 C   0  0  0  0  0  0  0  0  0  0  0  0
    5.4641   -2.3030    0.0000 C   0  0  0  0  0  0  0  0  0  0  0  0
    7.1962   -3.3030    0.0000 C   0  0  0  0  0  0  0  0  0  0  0  0
    9.8744   -1.9982    0.0000 C   0  0  0  0  0  0  0  0  0  0  0  0
    4.5981    2.1970    0.0000 C   0  0  0  0  0  0  0  0  0  0  0  0
    4.5981   -0.8030    0.0000 C   0  0  0  0  0  0  0  0  0  0  0  0
    5.4641    0.6970    0.0000 C   0  0  0  0  0  0  0  0  0  0  0  0
    4.5981   -1.8030    0.0000 C   0  0  0  0  0  0  0  0  0  0  0  0
    3.7320    2.6970    0.0000 C   0  0  0  0  0  0  0  0  0  0  0  0
   10.4580   -2.8030    0.0000 C   0  0  0  0  0  0  0  0  0  0  0  0
    3.7320    3.6970    0.0000 C   0  0  0  0  0  0  0  0  0  0  0  0
    2.8660    2.1970    0.0000 C   0  0  0  0  0  0  0  0  0  0  0  0
    2.8660    4.1970    0.0000 C   0  0  0  0  0  0  0  0  0  0  0  0
    2.0000    2.6970    0.0000 C   0  0  0  0  0  0  0  0  0  0  0  0
    2.0000    3.6970    0.0000 C   0  0  0  0  0  0  0  0  0  0  0  0
    8.0622   -1.1830    0.0000 H   0  0  0  0  0  0  0  0  0  0  0  0
    6.8671   -0.4930    0.0000 H   0  0  0  0  0  0  0  0  0  0  0  0
    5.4641   -2.9230    0.0000 H   0  0  0  0  0  0  0  0  0  0  0  0
    6.6592   -3.6130    0.0000 H   0  0  0  0  0  0  0  0  0  0  0  0
   10.0670   -1.4089    0.0000 H   0  0  0  0  0  0  0  0  0  0  0  0
    5.2087    2.0894    0.0000 H   0  0  0  0  0  0  0  0  0  0  0  0
    4.8101    2.7796    0.0000 H   0  0  0  0  0  0  0  0  0  0  0  0
   10.0670   -4.1970    0.0000 H   0  0  0  0  0  0  0  0  0  0  0  0
    4.0611   -0.4930    0.0000 H   0  0  0  0  0  0  0  0  0  0  0  0
    4.0611   -2.1130    0.0000 H   0  0  0  0  0  0  0  0  0  0  0  0
    4.0611    0.8870    0.0000 H   0  0  0  0  0  0  0  0  0  0  0  0
   11.0780   -2.8030    0.0000 H   0  0  0  0  0  0  0  0  0  0  0  0
    4.2690    4.0070    0.0000 H   0  0  0  0  0  0  0  0  0  0  0  0
    2.8660    1.5770    0.0000 H   0  0  0  0  0  0  0  0  0  0  0  0
    2.8660    4.8170    0.0000 H   0  0  0  0  0  0  0  0  0  0  0  0
    1.4631    2.3870    0.0000 H   0  0  0  0  0  0  0  0  0  0  0  0
    1.4631    4.0070    0.0000 H   0  0  0  0  0  0  0  0  0  0  0  0
  1 17  2  0  0  0  0
  2  9  1  0  0  0  0
  2 20  1  0  0  0  0
  2 33  1  0  0  0  0
  3 15  1  0  0  0  0
  3 17  1  0  0  0  0
  3 36  1  0  0  0  0
  4  9  2  0  0  0  0
  4 13  1  0  0  0  0
  5  6  1  0  0  0  0
  5  8  1  0  0  0  0
  5 13  2  0  0  0  0
  6 11  2  0  0  0  0
  6 12  1  0  0  0  0
  7  8  2  0  0  0  0
  7  9  1  0  0  0  0
  7 14  1  0  0  0  0
  8 26  1  0  0  0  0
 10 11  1  0  0  0  0
 10 16  2  0  0  0  0
 10 17  1  0  0  0  0
 11 27  1  0  0  0  0
 12 18  2  0  0  0  0
 12 28  1  0  0  0  0
 13 29  1  0  0  0  0
 14 20  2  0  0  0  0
 14 30  1  0  0  0  0
 15 19  1  0  0  0  0
 15 31  1  0  0  0  0
 15 32  1  0  0  0  0
 16 18  1  0  0  0  0
 16 34  1  0  0  0  0
 18 35  1  0  0  0  0
 19 21  2  0  0  0  0
 19 22  1  0  0  0  0
 20 37  1  0  0  0  0
 21 23  1  0  0  0  0
 21 38  1  0  0  0  0
 22 24  2  0  0  0  0
 22 39  1  0  0  0  0
 23 25  2  0  0  0  0
 23 40  1  0  0  0  0
 24 25  1  0  0  0  0
 24 41  1  0  0  0  0
 25 42  1  0  0  0  0
M  END
> <PUBCHEM_COMPOUND_CID>
49830491

> <PUBCHEM_COMPOUND_CANONICALIZED>
1

> <PUBCHEM_CACTVS_COMPLEXITY>
448

> <PUBCHEM_CACTVS_HBOND_ACCEPTOR>
2

> <PUBCHEM_CACTVS_HBOND_DONOR>
2

> <PUBCHEM_CACTVS_ROTATABLE_BOND>
4

> <PUBCHEM_CACTVS_SUBSKEYS>
AAADceB7IAAAAAAAAAAAAAAAAAAAAWAAAAA8YIAAAAAAAFgB/AAAHgAQAAAADADBmwQ9sN7JkACoAjN3dACCgCm1AqAJ2aE4ZNiIKPLAnZGEIQholgLIyacYiMCOgAACAAAAAAAAAAQAAAAAAAAAAAAAAA==

> <PUBCHEM_IUPAC_OPENEYE_NAME>
N-benzyl-3-(1H-pyrrolo[2,3-b]pyridin-5-yl)benzamide

> <PUBCHEM_IUPAC_CAS_NAME>
N-(phenylmethyl)-3-(1H-pyrrolo[2,3-b]pyridin-5-yl)benzamide

> <PUBCHEM_IUPAC_NAME_MARKUP>
<I>N</I>-benzyl-3-(1<I>H</I>-pyrrolo[2,3-b]pyridin-5-yl)benzamide

> <PUBCHEM_IUPAC_NAME>
N-benzyl-3-(1H-pyrrolo[2,3-b]pyridin-5-yl)benzamide

> <PUBCHEM_IUPAC_SYSTEMATIC_NAME>
N-(phenylmethyl)-3-(1H-pyrrolo[2,3-b]pyridin-5-yl)benzamide

> <PUBCHEM_IUPAC_TRADITIONAL_NAME>
N-benzyl-3-(1H-pyrrolo[2,3-b]pyridin-5-yl)benzamide

> <PUBCHEM_IUPAC_INCHI>
InChI=1S/C21H17N3O/c25-21(24-13-15-5-2-1-3-6-15)18-8-4-7-16(11-18)19-12-17-9-10-22-20(17)23-14-19/h1-12,14H,13H2,(H,22,23)(H,24,25)

> <PUBCHEM_IUPAC_INCHIKEY>
IZAVTOABECKIDH-UHFFFAOYSA-N

> <PUBCHEM_XLOGP3_AA>
3.7

> <PUBCHEM_EXACT_MASS>
327.137162174

> <PUBCHEM_MOLECULAR_FORMULA>
C21H17N3O

> <PUBCHEM_MOLECULAR_WEIGHT>
327.4

> <PUBCHEM_SMILES>
C1=CC=C(C=C1)CNC(=O)C2=CC=CC(=C2)C3=CN=C4C(=C3)C=CN4

> <PUBCHEM_OPENEYE_CAN_SMILES>
C1=CC=C(C=C1)CNC(=O)C2=CC=CC(=C2)C3=CN=C4C(=C3)C=CN4

> <PUBCHEM_OPENEYE_ISO_SMILES>
C1=CC=C(C=C1)CNC(=O)C2=CC=CC(=C2)C3=CN=C4C(=C3)C=CN4

> <PUBCHEM_CACTVS_TPSA>
57.8

> <PUBCHEM_MONOISOTOPIC_WEIGHT>
327.137162174

> <PUBCHEM_TOTAL_CHARGE>
0

> <PUBCHEM_HEAVY_ATOM_COUNT>
25

> <PUBCHEM_ATOM_DEF_STEREO_COUNT>
0

> <PUBCHEM_ATOM_UDEF_STEREO_COUNT>
0

> <PUBCHEM_BOND_DEF_STEREO_COUNT>
0

> <PUBCHEM_BOND_UDEF_STEREO_COUNT>
0

> <PUBCHEM_ISOTOPIC_ATOM_COUNT>
0

> <PUBCHEM_COMPONENT_COUNT>
1

> <PUBCHEM_CACTVS_TAUTO_COUNT>
-1

> <PUBCHEM_COORDINATE_TYPE>
1
5
255

> <PUBCHEM_BONDANNOTATIONS>
10  11  8
10  16  8
12  18  8
14  20  8
16  18  8
19  21  8
19  22  8
2  20  8
2  9  8
21  23  8
22  24  8
23  25  8
24  25  8
4  13  8
4  9  8
5  13  8
5  8  8
6  11  8
6  12  8
7  14  8
7  8  8
7  9  8

$$$$
