44364050
  -OEChem-03202505452D

 46 53  0     1  0  0  0  0  0999 V2000
    3.4737   -2.7437    0.0000 O   0  0  0  0  0  0  0  0  0  0  0  0
    2.2501    0.6180    0.0000 O   0  0  0  0  0  0  0  0  0  0  0  0
    6.9273   -0.6474    0.0000 N   0  0  0  0  0  0  0  0  0  0  0  0
    6.2433    1.2320    0.0000 N   0  0  0  0  0  0  0  0  0  0  0  0
    7.5253    2.3172    0.0000 N   0  0  0  0  0  0  0  0  0  0  0  0
    2.5826   -1.1645    0.0000 N   0  0  0  0  0  0  0  0  0  0  0  0
    8.0031    0.3687    0.0000 C   0  0  2  0  0  0  0  0  0  0  0  0
    8.2619    1.3346    0.0000 C   0  0  1  0  0  0  0  0  0  0  0  0
    9.4020   -0.1401    0.0000 C   0  0  0  0  0  0  0  0  0  0  0  0
    9.6609    0.8258    0.0000 C   0  0  0  0  0  0  0  0  0  0  0  0
    5.9425   -0.4737    0.0000 C   0  0  0  0  0  0  0  0  0  0  0  0
    5.6005    0.4660    0.0000 C   0  0  0  0  0  0  0  0  0  0  0  0
    5.2853   -1.2819    0.0000 C   0  0  0  0  0  0  0  0  0  0  0  0
    4.5776    0.6626    0.0000 C   0  0  0  0  0  0  0  0  0  0  0  0
    6.9003   -1.6408    0.0000 C   0  0  0  0  0  0  0  0  0  0  0  0
    5.5840    1.9757    0.0000 C   0  0  0  0  0  0  0  0  0  0  0  0
    5.9733   -1.9990    0.0000 C   0  0  0  0  0  0  0  0  0  0  0  0
    4.6436    1.6543    0.0000 C   0  0  0  0  0  0  0  0  0  0  0  0
    4.2582   -1.1089    0.0000 C   0  0  0  0  0  0  0  0  0  0  0  0
    3.9019   -0.1301    0.0000 C   0  0  0  0  0  0  0  0  0  0  0  0
    7.7162   -2.2780    0.0000 C   0  0  0  0  0  0  0  0  0  0  0  0
    5.7995    2.9882    0.0000 C   0  0  0  0  0  0  0  0  0  0  0  0
    3.4406   -1.7443    0.0000 C   0  0  0  0  0  0  0  0  0  0  0  0
    2.8672   -0.1689    0.0000 C   0  0  0  0  0  0  0  0  0  0  0  0
    5.7979   -3.0193    0.0000 C   0  0  0  0  0  0  0  0  0  0  0  0
    3.8535    2.3231    0.0000 C   0  0  0  0  0  0  0  0  0  0  0  0
    7.5644   -3.3020    0.0000 C   0  0  0  0  0  0  0  0  0  0  0  0
    5.0250    3.6751    0.0000 C   0  0  0  0  0  0  0  0  0  0  0  0
    6.5988   -3.6751    0.0000 C   0  0  0  0  0  0  0  0  0  0  0  0
    4.0454    3.3403    0.0000 C   0  0  0  0  0  0  0  0  0  0  0  0
    7.7831   -0.4524    0.0000 H   0  0  0  0  0  0  0  0  0  0  0  0
    8.4819    2.1556    0.0000 H   0  0  0  0  0  0  0  0  0  0  0  0
    9.2071   -0.7287    0.0000 H   0  0  0  0  0  0  0  0  0  0  0  0
    9.9960   -0.3179    0.0000 H   0  0  0  0  0  0  0  0  0  0  0  0
   10.2548    0.6480    0.0000 H   0  0  0  0  0  0  0  0  0  0  0  0
    9.8558    1.4143    0.0000 H   0  0  0  0  0  0  0  0  0  0  0  0
    7.2153    2.8542    0.0000 H   0  0  0  0  0  0  0  0  0  0  0  0
    8.2919   -2.0478    0.0000 H   0  0  0  0  0  0  0  0  0  0  0  0
    6.3884    3.1820    0.0000 H   0  0  0  0  0  0  0  0  0  0  0  0
    5.2171   -3.2360    0.0000 H   0  0  0  0  0  0  0  0  0  0  0  0
    3.2692    2.1157    0.0000 H   0  0  0  0  0  0  0  0  0  0  0  0
    2.0000   -1.3766    0.0000 H   0  0  0  0  0  0  0  0  0  0  0  0
    8.0486   -3.6892    0.0000 H   0  0  0  0  0  0  0  0  0  0  0  0
    5.1470    4.2830    0.0000 H   0  0  0  0  0  0  0  0  0  0  0  0
    6.5009   -4.2873    0.0000 H   0  0  0  0  0  0  0  0  0  0  0  0
    3.5769    3.7463    0.0000 H   0  0  0  0  0  0  0  0  0  0  0  0
  1 23  2  0  0  0  0
  2 24  2  0  0  0  0
  3  7  1  0  0  0  0
  3 11  1  0  0  0  0
  3 15  1  0  0  0  0
  4  8  1  0  0  0  0
  4 12  1  0  0  0  0
  4 16  1  0  0  0  0
  5  7  1  0  0  0  0
  5  8  1  0  0  0  0
  5 37  1  0  0  0  0
  6 23  1  0  0  0  0
  6 24  1  0  0  0  0
  6 42  1  0  0  0  0
  7  9  1  0  0  0  0
  7 31  1  1  0  0  0
  8 10  1  0  0  0  0
  8 32  1  6  0  0  0
  9 10  1  0  0  0  0
  9 33  1  0  0  0  0
  9 34  1  0  0  0  0
 10 35  1  0  0  0  0
 10 36  1  0  0  0  0
 11 12  2  0  0  0  0
 11 13  1  0  0  0  0
 12 14  1  0  0  0  0
 13 17  1  0  0  0  0
 13 19  2  0  0  0  0
 14 18  1  0  0  0  0
 14 20  2  0  0  0  0
 15 17  1  0  0  0  0
 15 21  2  0  0  0  0
 16 18  1  0  0  0  0
 16 22  2  0  0  0  0
 17 25  2  0  0  0  0
 18 26  2  0  0  0  0
 19 20  1  0  0  0  0
 19 23  1  0  0  0  0
 20 24  1  0  0  0  0
 21 27  1  0  0  0  0
 21 38  1  0  0  0  0
 22 28  1  0  0  0  0
 22 39  1  0  0  0  0
 25 29  1  0  0  0  0
 25 40  1  0  0  0  0
 26 30  1  0  0  0  0
 26 41  1  0  0  0  0
 27 29  2  0  0  0  0
 27 43  1  0  0  0  0
 28 30  2  0  0  0  0
 28 44  1  0  0  0  0
 29 45  1  0  0  0  0
 30 46  1  0  0  0  0
M  END
> <PUBCHEM_COMPOUND_CID>
44364050

> <PUBCHEM_COMPOUND_CANONICALIZED>
1

> <PUBCHEM_CACTVS_COMPLEXITY>
753

> <PUBCHEM_CACTVS_HBOND_ACCEPTOR>
3

> <PUBCHEM_CACTVS_HBOND_DONOR>
2

> <PUBCHEM_CACTVS_ROTATABLE_BOND>
0

> <PUBCHEM_CACTVS_SUBSKEYS>
AAADceB7sAAAAAAAAAAAAAAAAAAAAWLFiwAwYMAABYAWAFix/gAAHgAQAAAADAjBngQxwPPMEACoAyVyVACCgCQlEiAI2KE4dNiIYPLAlZGUIQholCLIyScdicCeyAACQAASACCQAASAACQAQAAAAAAAAA==

> <PUBCHEM_IUPAC_OPENEYE_NAME>
(15R,18S)-4,14,19,28-tetrazaoctacyclo[12.11.2.115,18.02,6.07,27.08,13.019,26.020,25]octacosa-1,6,8,10,12,20,22,24,26-nonaene-3,5-dione

> <PUBCHEM_IUPAC_CAS_NAME>
(15R,18S)-4,14,19,28-tetrazaoctacyclo[12.11.2.115,18.02,6.07,27.08,13.019,26.020,25]octacosa-1,6,8,10,12,20,22,24,26-nonaene-3,5-dione

> <PUBCHEM_IUPAC_NAME_MARKUP>
(15<I>R</I>,18<I>S</I>)-4,14,19,28-tetrazaoctacyclo[12.11.2.1<SUP>15,18</SUP>.0<SUP>2,6</SUP>.0<SUP>7,27</SUP>.0<SUP>8,13</SUP>.0<SUP>19,26</SUP>.0<SUP>20,25</SUP>]octacosa-1,6,8,10,12,20,22,24,26-nonaene-3,5-dione

> <PUBCHEM_IUPAC_NAME>
(15R,18S)-4,14,19,28-tetrazaoctacyclo[12.11.2.115,18.02,6.07,27.08,13.019,26.020,25]octacosa-1,6,8,10,12,20,22,24,26-nonaene-3,5-dione

> <PUBCHEM_IUPAC_SYSTEMATIC_NAME>
(15R,18S)-4,14,19,28-tetrazaoctacyclo[12.11.2.115,18.02,6.07,27.08,13.019,26.020,25]octacosa-1,6,8,10,12,20,22,24,26-nonaene-3,5-dione

> <PUBCHEM_IUPAC_TRADITIONAL_NAME>
(15R,18S)-4,14,19,28-tetrazaoctacyclo[12.11.2.115,18.02,6.07,27.08,13.019,26.020,25]octacosa-1,6,8,10,12,20,22,24,26-nonaene-3,5-quinone

> <PUBCHEM_IUPAC_INCHI>
InChI=1S/C24H16N4O2/c29-23-19-17-11-5-1-3-7-13(11)27-15-9-10-16(25-15)28-14-8-4-2-6-12(14)18(22(28)21(17)27)20(19)24(30)26-23/h1-8,15-16,25H,9-10H2,(H,26,29,30)/t15-,16+

> <PUBCHEM_IUPAC_INCHIKEY>
OXEOHAXVZADDOC-IYBDPMFKSA-N

> <PUBCHEM_XLOGP3_AA>
3.5

> <PUBCHEM_EXACT_MASS>
392.12732577

> <PUBCHEM_MOLECULAR_FORMULA>
C24H16N4O2

> <PUBCHEM_MOLECULAR_WEIGHT>
392.4

> <PUBCHEM_SMILES>
C1C[C@H]2N[C@@H]1N3C4=CC=CC=C4C5=C6C(=C7C8=CC=CC=C8N2C7=C53)C(=O)NC6=O

> <PUBCHEM_OPENEYE_CAN_SMILES>
C1CC2NC1N3C4=CC=CC=C4C5=C6C(=C7C8=CC=CC=C8N2C7=C53)C(=O)NC6=O

> <PUBCHEM_OPENEYE_ISO_SMILES>
C1C[C@H]2N[C@@H]1N3C4=CC=CC=C4C5=C6C(=C7C8=CC=CC=C8N2C7=C53)C(=O)NC6=O

> <PUBCHEM_CACTVS_TPSA>
68.1

> <PUBCHEM_MONOISOTOPIC_WEIGHT>
392.12732577

> <PUBCHEM_TOTAL_CHARGE>
0

> <PUBCHEM_HEAVY_ATOM_COUNT>
30

> <PUBCHEM_ATOM_DEF_STEREO_COUNT>
2

> <PUBCHEM_ATOM_UDEF_STEREO_COUNT>
0

> <PUBCHEM_BOND_DEF_STEREO_COUNT>
0

> <PUBCHEM_BOND_UDEF_STEREO_COUNT>
0

> <PUBCHEM_ISOTOPIC_ATOM_COUNT>
0

> <PUBCHEM_COMPONENT_COUNT>
1

> <PUBCHEM_CACTVS_TAUTO_COUNT>
-1

> <PUBCHEM_COORDINATE_TYPE>
1
5
255

> <PUBCHEM_BONDANNOTATIONS>
11  12  8
11  13  8
12  14  8
13  17  8
13  19  8
14  18  8
14  20  8
15  17  8
15  21  8
16  18  8
16  22  8
17  25  8
18  26  8
19  20  8
21  27  8
22  28  8
25  29  8
26  30  8
27  29  8
28  30  8
3  11  8
3  15  8
4  12  8
4  16  8
7  31  5
8  32  6

$$$$
