49830468
  -OEChem-03202500532D

 49 52  0     0  0  0  0  0  0999 V2000
   12.2486   -0.1202    0.0000 O   0  0  0  0  0  0  0  0  0  0  0  0
    5.1646   -0.0009    0.0000 N   0  0  0  0  0  0  0  0  0  0  0  0
   10.2916   -2.1421    0.0000 N   0  0  0  0  0  0  0  0  0  0  0  0
   10.6022    0.4179    0.0000 N   0  0  0  0  0  0  0  0  0  0  0  0
   10.8752   -1.3373    0.0000 N   0  0  0  0  0  0  0  0  0  0  0  0
   12.8699    1.7809    0.0000 N   0  0  0  0  0  0  0  0  0  0  0  0
    6.6428    0.6572    0.0000 N   0  0  0  0  0  0  0  0  0  0  0  0
    5.6646    0.8651    0.0000 N   0  0  0  0  0  0  0  0  0  0  0  0
    9.3454   -0.8373    0.0000 C   0  0  0  0  0  0  0  0  0  0  0  0
    9.3454   -1.8373    0.0000 C   0  0  0  0  0  0  0  0  0  0  0  0
    7.6133   -0.8373    0.0000 C   0  0  0  0  0  0  0  0  0  0  0  0
    8.4793   -0.3373    0.0000 C   0  0  0  0  0  0  0  0  0  0  0  0
   10.2916   -0.5326    0.0000 C   0  0  0  0  0  0  0  0  0  0  0  0
    6.7473   -0.3373    0.0000 C   0  0  0  0  0  0  0  0  0  0  0  0
    8.4793   -2.3373    0.0000 C   0  0  0  0  0  0  0  0  0  0  0  0
    7.6133   -1.8373    0.0000 C   0  0  0  0  0  0  0  0  0  0  0  0
    4.1701   -0.1055    0.0000 C   0  0  0  0  0  0  0  0  0  0  0  0
    5.8338   -0.7441    0.0000 C   0  0  0  0  0  0  0  0  0  0  0  0
    3.5823    0.7036    0.0000 C   0  0  0  0  0  0  0  0  0  0  0  0
   11.8914    1.5747    0.0000 C   0  0  0  0  0  0  0  0  0  0  0  0
   11.5808    0.6241    0.0000 C   0  0  0  0  0  0  0  0  0  0  0  0
    2.5878    0.5990    0.0000 C   0  0  0  0  0  0  0  0  0  0  0  0
    3.9890    1.6171    0.0000 C   0  0  0  0  0  0  0  0  0  0  0  0
   13.1806    2.7314    0.0000 C   0  0  0  0  0  0  0  0  0  0  0  0
   13.5378    1.0366    0.0000 C   0  0  0  0  0  0  0  0  0  0  0  0
    2.0000    1.4080    0.0000 C   0  0  0  0  0  0  0  0  0  0  0  0
    3.4013    2.4261    0.0000 C   0  0  0  0  0  0  0  0  0  0  0  0
    2.4067    2.3216    0.0000 C   0  0  0  0  0  0  0  0  0  0  0  0
    8.4793    0.2827    0.0000 H   0  0  0  0  0  0  0  0  0  0  0  0
    8.4793   -2.9573    0.0000 H   0  0  0  0  0  0  0  0  0  0  0  0
    7.0764   -2.1473    0.0000 H   0  0  0  0  0  0  0  0  0  0  0  0
    3.6128   -0.3772    0.0000 H   0  0  0  0  0  0  0  0  0  0  0  0
    4.3410   -0.7014    0.0000 H   0  0  0  0  0  0  0  0  0  0  0  0
   10.4842   -2.7314    0.0000 H   0  0  0  0  0  0  0  0  0  0  0  0
    5.7048   -1.3505    0.0000 H   0  0  0  0  0  0  0  0  0  0  0  0
   10.1882    0.8794    0.0000 H   0  0  0  0  0  0  0  0  0  0  0  0
   11.8709    2.1943    0.0000 H   0  0  0  0  0  0  0  0  0  0  0  0
   11.2776    1.6620    0.0000 H   0  0  0  0  0  0  0  0  0  0  0  0
    2.3356    0.0326    0.0000 H   0  0  0  0  0  0  0  0  0  0  0  0
    4.6056    1.6819    0.0000 H   0  0  0  0  0  0  0  0  0  0  0  0
   13.7699    2.5388    0.0000 H   0  0  0  0  0  0  0  0  0  0  0  0
   13.3732    3.3207    0.0000 H   0  0  0  0  0  0  0  0  0  0  0  0
   12.5913    2.9240    0.0000 H   0  0  0  0  0  0  0  0  0  0  0  0
   13.0763    0.6225    0.0000 H   0  0  0  0  0  0  0  0  0  0  0  0
   13.9518    0.5751    0.0000 H   0  0  0  0  0  0  0  0  0  0  0  0
   13.9992    1.4506    0.0000 H   0  0  0  0  0  0  0  0  0  0  0  0
    1.3834    1.3432    0.0000 H   0  0  0  0  0  0  0  0  0  0  0  0
    3.6534    2.9925    0.0000 H   0  0  0  0  0  0  0  0  0  0  0  0
    2.0423    2.8232    0.0000 H   0  0  0  0  0  0  0  0  0  0  0  0
  1 21  2  0  0  0  0
  2  8  1  0  0  0  0
  2 17  1  0  0  0  0
  2 18  1  0  0  0  0
  3  5  1  0  0  0  0
  3 10  1  0  0  0  0
  3 34  1  0  0  0  0
  4 13  1  0  0  0  0
  4 21  1  0  0  0  0
  4 36  1  0  0  0  0
  5 13  2  0  0  0  0
  6 20  1  0  0  0  0
  6 24  1  0  0  0  0
  6 25  1  0  0  0  0
  7  8  2  0  0  0  0
  7 14  1  0  0  0  0
  9 10  2  0  0  0  0
  9 12  1  0  0  0  0
  9 13  1  0  0  0  0
 10 15  1  0  0  0  0
 11 12  2  0  0  0  0
 11 14  1  0  0  0  0
 11 16  1  0  0  0  0
 12 29  1  0  0  0  0
 14 18  2  0  0  0  0
 15 16  2  0  0  0  0
 15 30  1  0  0  0  0
 16 31  1  0  0  0  0
 17 19  1  0  0  0  0
 17 32  1  0  0  0  0
 17 33  1  0  0  0  0
 18 35  1  0  0  0  0
 19 22  2  0  0  0  0
 19 23  1  0  0  0  0
 20 21  1  0  0  0  0
 20 37  1  0  0  0  0
 20 38  1  0  0  0  0
 22 26  1  0  0  0  0
 22 39  1  0  0  0  0
 23 27  2  0  0  0  0
 23 40  1  0  0  0  0
 24 41  1  0  0  0  0
 24 42  1  0  0  0  0
 24 43  1  0  0  0  0
 25 44  1  0  0  0  0
 25 45  1  0  0  0  0
 25 46  1  0  0  0  0
 26 28  2  0  0  0  0
 26 47  1  0  0  0  0
 27 28  1  0  0  0  0
 27 48  1  0  0  0  0
 28 49  1  0  0  0  0
M  END
> <PUBCHEM_COMPOUND_CID>
49830468

> <PUBCHEM_COMPOUND_CANONICALIZED>
1

> <PUBCHEM_CACTVS_COMPLEXITY>
525

> <PUBCHEM_CACTVS_HBOND_ACCEPTOR>
5

> <PUBCHEM_CACTVS_HBOND_DONOR>
2

> <PUBCHEM_CACTVS_ROTATABLE_BOND>
6

> <PUBCHEM_CACTVS_SUBSKEYS>
AAADceB7oAAAAAAAAAAAAAAAAAAAAWLAAAAwYAAAAAAAAFgB/AAAHgAYAAAADAjBngQ/8PPrAACqAzd3dACSBAYxkgAd+SC4dJiIYKLA2fGUpAhwnQLIyAcQgMAOCAACAAACAAAQAAQAAAQAAAAAAAAAAA==

> <PUBCHEM_IUPAC_OPENEYE_NAME>
N-[5-(1-benzyltriazol-4-yl)-1H-indazol-3-yl]-2-(dimethylamino)acetamide

> <PUBCHEM_IUPAC_CAS_NAME>
2-(dimethylamino)-N-[5-[1-(phenylmethyl)-4-triazolyl]-1H-indazol-3-yl]acetamide

> <PUBCHEM_IUPAC_NAME_MARKUP>
<I>N</I>-[5-(1-benzyltriazol-4-yl)-1<I>H</I>-indazol-3-yl]-2-(dimethylamino)acetamide

> <PUBCHEM_IUPAC_NAME>
N-[5-(1-benzyltriazol-4-yl)-1H-indazol-3-yl]-2-(dimethylamino)acetamide

> <PUBCHEM_IUPAC_SYSTEMATIC_NAME>
2-(dimethylamino)-N-[5-[1-(phenylmethyl)-1,2,3-triazol-4-yl]-1H-indazol-3-yl]ethanamide

> <PUBCHEM_IUPAC_TRADITIONAL_NAME>
N-[5-(1-benzyltriazol-4-yl)-1H-indazol-3-yl]-2-(dimethylamino)acetamide

> <PUBCHEM_IUPAC_INCHI>
InChI=1S/C20H21N7O/c1-26(2)13-19(28)21-20-16-10-15(8-9-17(16)22-24-20)18-12-27(25-23-18)11-14-6-4-3-5-7-14/h3-10,12H,11,13H2,1-2H3,(H2,21,22,24,28)

> <PUBCHEM_IUPAC_INCHIKEY>
FLHJZUQGFPJXRD-UHFFFAOYSA-N

> <PUBCHEM_XLOGP3_AA>
2.2

> <PUBCHEM_EXACT_MASS>
375.18075832

> <PUBCHEM_MOLECULAR_FORMULA>
C20H21N7O

> <PUBCHEM_MOLECULAR_WEIGHT>
375.4

> <PUBCHEM_SMILES>
CN(C)CC(=O)NC1=NNC2=C1C=C(C=C2)C3=CN(N=N3)CC4=CC=CC=C4

> <PUBCHEM_OPENEYE_CAN_SMILES>
CN(C)CC(=O)NC1=NNC2=C1C=C(C=C2)C3=CN(N=N3)CC4=CC=CC=C4

> <PUBCHEM_OPENEYE_ISO_SMILES>
CN(C)CC(=O)NC1=NNC2=C1C=C(C=C2)C3=CN(N=N3)CC4=CC=CC=C4

> <PUBCHEM_CACTVS_TPSA>
91.7

> <PUBCHEM_MONOISOTOPIC_WEIGHT>
375.18075832

> <PUBCHEM_TOTAL_CHARGE>
0

> <PUBCHEM_HEAVY_ATOM_COUNT>
28

> <PUBCHEM_ATOM_DEF_STEREO_COUNT>
0

> <PUBCHEM_ATOM_UDEF_STEREO_COUNT>
0

> <PUBCHEM_BOND_DEF_STEREO_COUNT>
0

> <PUBCHEM_BOND_UDEF_STEREO_COUNT>
0

> <PUBCHEM_ISOTOPIC_ATOM_COUNT>
0

> <PUBCHEM_COMPONENT_COUNT>
1

> <PUBCHEM_CACTVS_TAUTO_COUNT>
-1

> <PUBCHEM_COORDINATE_TYPE>
1
5
255

> <PUBCHEM_BONDANNOTATIONS>
10  15  8
11  12  8
11  16  8
14  18  8
15  16  8
19  22  8
19  23  8
2  18  8
2  8  8
22  26  8
23  27  8
26  28  8
27  28  8
3  10  8
3  5  8
5  13  8
7  14  8
7  8  8
9  10  8
9  12  8
9  13  8

$$$$
