15981404
  -OEChem-03202502492D

 53 56  0     0  0  0  0  0  0999 V2000
    9.2619   -1.7798    0.0000 F   0  0  0  0  0  0  0  0  0  0  0  0
    9.8349    3.6519    0.0000 O   0  0  0  0  0  0  0  0  0  0  0  0
    7.2566    1.3384    0.0000 N   0  0  0  0  0  0  0  0  0  0  0  0
    3.7320   -1.2798    0.0000 N   0  0  0  0  0  0  0  0  0  0  0  0
    5.9674    0.1817    0.0000 N   0  0  0  0  0  0  0  0  0  0  0  0
    4.6783   -2.5845    0.0000 N   0  0  0  0  0  0  0  0  0  0  0  0
    5.6103    1.8765    0.0000 N   0  0  0  0  0  0  0  0  0  0  0  0
    2.0000   -2.2798    0.0000 N   0  0  0  0  0  0  0  0  0  0  0  0
    8.5458    2.4952    0.0000 C   0  0  0  0  0  0  0  0  0  0  0  0
    7.5673    2.2890    0.0000 C   0  0  0  0  0  0  0  0  0  0  0  0
    9.5243    2.7014    0.0000 C   0  0  0  0  0  0  0  0  0  0  0  0
    8.3396    3.4737    0.0000 C   0  0  0  0  0  0  0  0  0  0  0  0
    8.7520    1.5167    0.0000 C   0  0  0  0  0  0  0  0  0  0  0  0
    4.6783   -0.9750    0.0000 C   0  0  0  0  0  0  0  0  0  0  0  0
    6.2781    1.1322    0.0000 C   0  0  0  0  0  0  0  0  0  0  0  0
    5.2619   -1.7798    0.0000 C   0  0  0  0  0  0  0  0  0  0  0  0
    4.9889   -0.0245    0.0000 C   0  0  0  0  0  0  0  0  0  0  0  0
    3.7320   -2.2798    0.0000 C   0  0  0  0  0  0  0  0  0  0  0  0
    6.2619   -1.7798    0.0000 C   0  0  0  0  0  0  0  0  0  0  0  0
    2.8660   -2.7798    0.0000 C   0  0  0  0  0  0  0  0  0  0  0  0
    2.8660   -0.7798    0.0000 C   0  0  0  0  0  0  0  0  0  0  0  0
    4.3211    0.7198    0.0000 C   0  0  0  0  0  0  0  0  0  0  0  0
    4.6318    1.6703    0.0000 C   0  0  0  0  0  0  0  0  0  0  0  0
    2.0000   -1.2798    0.0000 C   0  0  0  0  0  0  0  0  0  0  0  0
    6.7619   -0.9137    0.0000 C   0  0  0  0  0  0  0  0  0  0  0  0
    6.7619   -2.6458    0.0000 C   0  0  0  0  0  0  0  0  0  0  0  0
    2.8660   -3.7798    0.0000 C   0  0  0  0  0  0  0  0  0  0  0  0
    7.7619   -0.9137    0.0000 C   0  0  0  0  0  0  0  0  0  0  0  0
    7.7619   -2.6458    0.0000 C   0  0  0  0  0  0  0  0  0  0  0  0
    8.2619   -1.7798    0.0000 C   0  0  0  0  0  0  0  0  0  0  0  0
    7.5467    2.9086    0.0000 H   0  0  0  0  0  0  0  0  0  0  0  0
    6.9534    2.3763    0.0000 H   0  0  0  0  0  0  0  0  0  0  0  0
    9.5448    2.0817    0.0000 H   0  0  0  0  0  0  0  0  0  0  0  0
   10.1381    2.6141    0.0000 H   0  0  0  0  0  0  0  0  0  0  0  0
    8.9462    3.6015    0.0000 H   0  0  0  0  0  0  0  0  0  0  0  0
    8.2117    4.0804    0.0000 H   0  0  0  0  0  0  0  0  0  0  0  0
    7.7329    3.3458    0.0000 H   0  0  0  0  0  0  0  0  0  0  0  0
    8.1453    1.3888    0.0000 H   0  0  0  0  0  0  0  0  0  0  0  0
    8.8798    0.9100    0.0000 H   0  0  0  0  0  0  0  0  0  0  0  0
    9.3587    1.6445    0.0000 H   0  0  0  0  0  0  0  0  0  0  0  0
    7.6707    0.8770    0.0000 H   0  0  0  0  0  0  0  0  0  0  0  0
   10.4416    3.7798    0.0000 H   0  0  0  0  0  0  0  0  0  0  0  0
    2.8660   -0.1598    0.0000 H   0  0  0  0  0  0  0  0  0  0  0  0
    3.7144    0.5919    0.0000 H   0  0  0  0  0  0  0  0  0  0  0  0
    4.2177    2.1318    0.0000 H   0  0  0  0  0  0  0  0  0  0  0  0
    1.4631   -0.9698    0.0000 H   0  0  0  0  0  0  0  0  0  0  0  0
    6.4519   -0.3768    0.0000 H   0  0  0  0  0  0  0  0  0  0  0  0
    6.4519   -3.1827    0.0000 H   0  0  0  0  0  0  0  0  0  0  0  0
    2.2460   -3.7798    0.0000 H   0  0  0  0  0  0  0  0  0  0  0  0
    2.8660   -4.3998    0.0000 H   0  0  0  0  0  0  0  0  0  0  0  0
    3.4860   -3.7798    0.0000 H   0  0  0  0  0  0  0  0  0  0  0  0
    8.0719   -0.3768    0.0000 H   0  0  0  0  0  0  0  0  0  0  0  0
    8.0719   -3.1827    0.0000 H   0  0  0  0  0  0  0  0  0  0  0  0
  1 30  1  0  0  0  0
  2 11  1  0  0  0  0
  2 42  1  0  0  0  0
  3 10  1  0  0  0  0
  3 15  1  0  0  0  0
  3 41  1  0  0  0  0
  4 14  1  0  0  0  0
  4 18  1  0  0  0  0
  4 21  1  0  0  0  0
  5 15  1  0  0  0  0
  5 17  2  0  0  0  0
  6 16  1  0  0  0  0
  6 18  2  0  0  0  0
  7 15  2  0  0  0  0
  7 23  1  0  0  0  0
  8 20  2  0  0  0  0
  8 24  1  0  0  0  0
  9 10  1  0  0  0  0
  9 11  1  0  0  0  0
  9 12  1  0  0  0  0
  9 13  1  0  0  0  0
 10 31  1  0  0  0  0
 10 32  1  0  0  0  0
 11 33  1  0  0  0  0
 11 34  1  0  0  0  0
 12 35  1  0  0  0  0
 12 36  1  0  0  0  0
 12 37  1  0  0  0  0
 13 38  1  0  0  0  0
 13 39  1  0  0  0  0
 13 40  1  0  0  0  0
 14 16  2  0  0  0  0
 14 17  1  0  0  0  0
 16 19  1  0  0  0  0
 17 22  1  0  0  0  0
 18 20  1  0  0  0  0
 19 25  2  0  0  0  0
 19 26  1  0  0  0  0
 20 27  1  0  0  0  0
 21 24  2  0  0  0  0
 21 43  1  0  0  0  0
 22 23  2  0  0  0  0
 22 44  1  0  0  0  0
 23 45  1  0  0  0  0
 24 46  1  0  0  0  0
 25 28  1  0  0  0  0
 25 47  1  0  0  0  0
 26 29  2  0  0  0  0
 26 48  1  0  0  0  0
 27 49  1  0  0  0  0
 27 50  1  0  0  0  0
 27 51  1  0  0  0  0
 28 30  2  0  0  0  0
 28 52  1  0  0  0  0
 29 30  1  0  0  0  0
 29 53  1  0  0  0  0
M  END
> <PUBCHEM_COMPOUND_CID>
15981404

> <PUBCHEM_COMPOUND_CANONICALIZED>
1

> <PUBCHEM_CACTVS_COMPLEXITY>
558

> <PUBCHEM_CACTVS_HBOND_ACCEPTOR>
7

> <PUBCHEM_CACTVS_HBOND_DONOR>
2

> <PUBCHEM_CACTVS_ROTATABLE_BOND>
6

> <PUBCHEM_CACTVS_SUBSKEYS>
AAADceB7oQAAAAAAAAAAAAAAAAAAAWAAAAA8WIAAAAAAAFgB/AAAHwAQCAAADgjhnw4/sJ/MGgCgAzZnZACCgC0xEqAJ2KA4dJiIeOLA2dGUZAhqgALIyCcQgMAOAAAAAAAAAAAAAAAAAAAAAAAAAAAAAA==

> <PUBCHEM_IUPAC_OPENEYE_NAME>
3-[[4-[2-(4-fluorophenyl)-8-methyl-imidazo[1,2-a]pyrazin-3-yl]pyrimidin-2-yl]amino]-2,2-dimethyl-propan-1-ol

> <PUBCHEM_IUPAC_CAS_NAME>
3-[[4-[2-(4-fluorophenyl)-8-methyl-3-imidazo[1,2-a]pyrazinyl]-2-pyrimidinyl]amino]-2,2-dimethyl-1-propanol

> <PUBCHEM_IUPAC_NAME_MARKUP>
3-[[4-[2-(4-fluorophenyl)-8-methylimidazo[1,2-a]pyrazin-3-yl]pyrimidin-2-yl]amino]-2,2-dimethylpropan-1-ol

> <PUBCHEM_IUPAC_NAME>
3-[[4-[2-(4-fluorophenyl)-8-methylimidazo[1,2-a]pyrazin-3-yl]pyrimidin-2-yl]amino]-2,2-dimethylpropan-1-ol

> <PUBCHEM_IUPAC_SYSTEMATIC_NAME>
3-[[4-[2-(4-fluorophenyl)-8-methyl-imidazo[1,2-a]pyrazin-3-yl]pyrimidin-2-yl]amino]-2,2-dimethyl-propan-1-ol

> <PUBCHEM_IUPAC_TRADITIONAL_NAME>
3-[[4-[2-(4-fluorophenyl)-8-methyl-imidazo[1,2-a]pyrazin-3-yl]pyrimidin-2-yl]amino]-2,2-dimethyl-propan-1-ol

> <PUBCHEM_IUPAC_INCHI>
InChI=1S/C22H23FN6O/c1-14-20-28-18(15-4-6-16(23)7-5-15)19(29(20)11-10-24-14)17-8-9-25-21(27-17)26-12-22(2,3)13-30/h4-11,30H,12-13H2,1-3H3,(H,25,26,27)

> <PUBCHEM_IUPAC_INCHIKEY>
VIOYJEOXCCYVDO-UHFFFAOYSA-N

> <PUBCHEM_XLOGP3_AA>
4.2

> <PUBCHEM_EXACT_MASS>
406.19173754

> <PUBCHEM_MOLECULAR_FORMULA>
C22H23FN6O

> <PUBCHEM_MOLECULAR_WEIGHT>
406.5

> <PUBCHEM_SMILES>
CC1=NC=CN2C1=NC(=C2C3=NC(=NC=C3)NCC(C)(C)CO)C4=CC=C(C=C4)F

> <PUBCHEM_OPENEYE_CAN_SMILES>
CC1=NC=CN2C1=NC(=C2C3=NC(=NC=C3)NCC(C)(C)CO)C4=CC=C(C=C4)F

> <PUBCHEM_OPENEYE_ISO_SMILES>
CC1=NC=CN2C1=NC(=C2C3=NC(=NC=C3)NCC(C)(C)CO)C4=CC=C(C=C4)F

> <PUBCHEM_CACTVS_TPSA>
88.2

> <PUBCHEM_MONOISOTOPIC_WEIGHT>
406.19173754

> <PUBCHEM_TOTAL_CHARGE>
0

> <PUBCHEM_HEAVY_ATOM_COUNT>
30

> <PUBCHEM_ATOM_DEF_STEREO_COUNT>
0

> <PUBCHEM_ATOM_UDEF_STEREO_COUNT>
0

> <PUBCHEM_BOND_DEF_STEREO_COUNT>
0

> <PUBCHEM_BOND_UDEF_STEREO_COUNT>
0

> <PUBCHEM_ISOTOPIC_ATOM_COUNT>
0

> <PUBCHEM_COMPONENT_COUNT>
1

> <PUBCHEM_CACTVS_TAUTO_COUNT>
-1

> <PUBCHEM_COORDINATE_TYPE>
1
5
255

> <PUBCHEM_BONDANNOTATIONS>
14  16  8
17  22  8
18  20  8
19  25  8
19  26  8
21  24  8
22  23  8
25  28  8
26  29  8
28  30  8
29  30  8
4  14  8
4  18  8
4  21  8
5  15  8
5  17  8
6  16  8
6  18  8
7  15  8
7  23  8
8  20  8
8  24  8

$$$$
