18451197
  -OEChem-03202500532D

 49 53  0     0  0  0  0  0  0999 V2000
    4.6783   -2.5986    0.0000 S   0  0  0  0  0  0  0  0  0  0  0  0
    8.5458    2.4811    0.0000 F   0  0  0  0  0  0  0  0  0  0  0  0
    2.3660   -5.3327    0.0000 O   0  0  0  0  0  0  0  0  0  0  0  0
    7.5673    2.2749    0.0000 O   0  0  0  0  0  0  0  0  0  0  0  0
    2.0000   -1.2938    0.0000 N   0  0  0  0  0  0  0  0  0  0  0  0
    2.8660    0.2062    0.0000 N   0  0  0  0  0  0  0  0  0  0  0  0
    5.9209    2.8130    0.0000 N   0  0  0  0  0  0  0  0  0  0  0  0
    7.2101    3.9697    0.0000 N   0  0  0  0  0  0  0  0  0  0  0  0
    3.7320   -1.2938    0.0000 C   0  0  0  0  0  0  0  0  0  0  0  0
    4.6783   -0.9891    0.0000 C   0  0  0  0  0  0  0  0  0  0  0  0
    3.7320   -2.2938    0.0000 C   0  0  0  0  0  0  0  0  0  0  0  0
    2.8660   -2.7938    0.0000 C   0  0  0  0  0  0  0  0  0  0  0  0
    4.9889   -0.0386    0.0000 C   0  0  0  0  0  0  0  0  0  0  0  0
    2.8660   -0.7938    0.0000 C   0  0  0  0  0  0  0  0  0  0  0  0
    5.2619   -1.7938    0.0000 C   0  0  0  0  0  0  0  0  0  0  0  0
    2.8660   -3.7938    0.0000 C   0  0  0  0  0  0  0  0  0  0  0  0
    2.0000   -2.2938    0.0000 C   0  0  0  0  0  0  0  0  0  0  0  0
    4.3211    0.7057    0.0000 C   0  0  0  0  0  0  0  0  0  0  0  0
    5.9674    0.1676    0.0000 C   0  0  0  0  0  0  0  0  0  0  0  0
    5.6103    1.8625    0.0000 C   0  0  0  0  0  0  0  0  0  0  0  0
    4.6318    1.6562    0.0000 C   0  0  0  0  0  0  0  0  0  0  0  0
    6.2781    1.1182    0.0000 C   0  0  0  0  0  0  0  0  0  0  0  0
    3.6750   -4.3816    0.0000 C   0  0  0  0  0  0  0  0  0  0  0  0
    2.0570   -4.3816    0.0000 C   0  0  0  0  0  0  0  0  0  0  0  0
    3.3660   -5.3327    0.0000 C   0  0  0  0  0  0  0  0  0  0  0  0
    6.8994    3.0192    0.0000 C   0  0  0  0  0  0  0  0  0  0  0  0
    8.1886    4.1759    0.0000 C   0  0  0  0  0  0  0  0  0  0  0  0
    8.8564    3.4316    0.0000 C   0  0  0  0  0  0  0  0  0  0  0  0
    8.4993    5.1265    0.0000 C   0  0  0  0  0  0  0  0  0  0  0  0
    9.8349    3.6378    0.0000 C   0  0  0  0  0  0  0  0  0  0  0  0
    9.4778    5.3327    0.0000 C   0  0  0  0  0  0  0  0  0  0  0  0
   10.1456    4.5884    0.0000 C   0  0  0  0  0  0  0  0  0  0  0  0
    5.8819   -1.7938    0.0000 H   0  0  0  0  0  0  0  0  0  0  0  0
    1.4631   -2.6038    0.0000 H   0  0  0  0  0  0  0  0  0  0  0  0
    3.7144    0.5779    0.0000 H   0  0  0  0  0  0  0  0  0  0  0  0
    6.3815   -0.2938    0.0000 H   0  0  0  0  0  0  0  0  0  0  0  0
    4.2177    2.1177    0.0000 H   0  0  0  0  0  0  0  0  0  0  0  0
    6.8848    1.2460    0.0000 H   0  0  0  0  0  0  0  0  0  0  0  0
    4.2647   -4.1900    0.0000 H   0  0  0  0  0  0  0  0  0  0  0  0
    1.4674   -4.1900    0.0000 H   0  0  0  0  0  0  0  0  0  0  0  0
    2.3291    0.5162    0.0000 H   0  0  0  0  0  0  0  0  0  0  0  0
    3.4030    0.5162    0.0000 H   0  0  0  0  0  0  0  0  0  0  0  0
    5.5069    3.2744    0.0000 H   0  0  0  0  0  0  0  0  0  0  0  0
    3.7304   -5.8343    0.0000 H   0  0  0  0  0  0  0  0  0  0  0  0
    6.7960    4.4312    0.0000 H   0  0  0  0  0  0  0  0  0  0  0  0
    8.0852    5.5879    0.0000 H   0  0  0  0  0  0  0  0  0  0  0  0
   10.2490    3.1764    0.0000 H   0  0  0  0  0  0  0  0  0  0  0  0
    9.6704    5.9220    0.0000 H   0  0  0  0  0  0  0  0  0  0  0  0
   10.7523    4.7162    0.0000 H   0  0  0  0  0  0  0  0  0  0  0  0
  1 11  1  0  0  0  0
  1 15  1  0  0  0  0
  2 28  1  0  0  0  0
  3 24  1  0  0  0  0
  3 25  1  0  0  0  0
  4 26  2  0  0  0  0
  5 14  2  0  0  0  0
  5 17  1  0  0  0  0
  6 14  1  0  0  0  0
  6 41  1  0  0  0  0
  6 42  1  0  0  0  0
  7 20  1  0  0  0  0
  7 26  1  0  0  0  0
  7 43  1  0  0  0  0
  8 26  1  0  0  0  0
  8 27  1  0  0  0  0
  8 45  1  0  0  0  0
  9 10  1  0  0  0  0
  9 11  2  0  0  0  0
  9 14  1  0  0  0  0
 10 13  1  0  0  0  0
 10 15  2  0  0  0  0
 11 12  1  0  0  0  0
 12 16  1  0  0  0  0
 12 17  2  0  0  0  0
 13 18  2  0  0  0  0
 13 19  1  0  0  0  0
 15 33  1  0  0  0  0
 16 23  1  0  0  0  0
 16 24  2  0  0  0  0
 17 34  1  0  0  0  0
 18 21  1  0  0  0  0
 18 35  1  0  0  0  0
 19 22  2  0  0  0  0
 19 36  1  0  0  0  0
 20 21  2  0  0  0  0
 20 22  1  0  0  0  0
 21 37  1  0  0  0  0
 22 38  1  0  0  0  0
 23 25  2  0  0  0  0
 23 39  1  0  0  0  0
 24 40  1  0  0  0  0
 25 44  1  0  0  0  0
 27 28  1  0  0  0  0
 27 29  2  0  0  0  0
 28 30  2  0  0  0  0
 29 31  1  0  0  0  0
 29 46  1  0  0  0  0
 30 32  1  0  0  0  0
 30 47  1  0  0  0  0
 31 32  2  0  0  0  0
 31 48  1  0  0  0  0
 32 49  1  0  0  0  0
M  END
> <PUBCHEM_COMPOUND_CID>
18451197

> <PUBCHEM_COMPOUND_CANONICALIZED>
1

> <PUBCHEM_CACTVS_COMPLEXITY>
649

> <PUBCHEM_CACTVS_HBOND_ACCEPTOR>
6

> <PUBCHEM_CACTVS_HBOND_DONOR>
3

> <PUBCHEM_CACTVS_ROTATABLE_BOND>
4

> <PUBCHEM_CACTVS_SUBSKEYS>
AAADceB7sQBAAAAAAAAAAAAAAAAAASJAAAA8YIAAAAAAAFgB/gAAHwQQAAAADAjl2g699dLIFEisAj539ACDiKk1KjAI2DEubNiMJnLktZuGOSzs1BPo6ae82fKOiAAAAAAAAAAQAAAAAAAAAAAAAAAAAA==

> <PUBCHEM_IUPAC_OPENEYE_NAME>
1-[4-[4-amino-7-(3-furyl)thieno[3,2-c]pyridin-3-yl]phenyl]-3-(2-fluorophenyl)urea

> <PUBCHEM_IUPAC_CAS_NAME>
1-[4-[4-amino-7-(3-furanyl)-3-thieno[3,2-c]pyridinyl]phenyl]-3-(2-fluorophenyl)urea

> <PUBCHEM_IUPAC_NAME_MARKUP>
1-[4-[4-amino-7-(furan-3-yl)thieno[3,2-c]pyridin-3-yl]phenyl]-3-(2-fluorophenyl)urea

> <PUBCHEM_IUPAC_NAME>
1-[4-[4-amino-7-(furan-3-yl)thieno[3,2-c]pyridin-3-yl]phenyl]-3-(2-fluorophenyl)urea

> <PUBCHEM_IUPAC_SYSTEMATIC_NAME>
1-[4-[4-azanyl-7-(furan-3-yl)thieno[3,2-c]pyridin-3-yl]phenyl]-3-(2-fluorophenyl)urea

> <PUBCHEM_IUPAC_TRADITIONAL_NAME>
1-[4-[4-amino-7-(3-furyl)thieno[3,2-c]pyridin-3-yl]phenyl]-3-(2-fluorophenyl)urea

> <PUBCHEM_IUPAC_INCHI>
InChI=1S/C24H17FN4O2S/c25-19-3-1-2-4-20(19)29-24(30)28-16-7-5-14(6-8-16)18-13-32-22-17(15-9-10-31-12-15)11-27-23(26)21(18)22/h1-13H,(H2,26,27)(H2,28,29,30)

> <PUBCHEM_IUPAC_INCHIKEY>
CNTCGRJDUJEUDG-UHFFFAOYSA-N

> <PUBCHEM_XLOGP3_AA>
4.5

> <PUBCHEM_EXACT_MASS>
444.10562513

> <PUBCHEM_MOLECULAR_FORMULA>
C24H17FN4O2S

> <PUBCHEM_MOLECULAR_WEIGHT>
444.5

> <PUBCHEM_SMILES>
C1=CC=C(C(=C1)NC(=O)NC2=CC=C(C=C2)C3=CSC4=C3C(=NC=C4C5=COC=C5)N)F

> <PUBCHEM_OPENEYE_CAN_SMILES>
C1=CC=C(C(=C1)NC(=O)NC2=CC=C(C=C2)C3=CSC4=C3C(=NC=C4C5=COC=C5)N)F

> <PUBCHEM_OPENEYE_ISO_SMILES>
C1=CC=C(C(=C1)NC(=O)NC2=CC=C(C=C2)C3=CSC4=C3C(=NC=C4C5=COC=C5)N)F

> <PUBCHEM_CACTVS_TPSA>
121

> <PUBCHEM_MONOISOTOPIC_WEIGHT>
444.10562513

> <PUBCHEM_TOTAL_CHARGE>
0

> <PUBCHEM_HEAVY_ATOM_COUNT>
32

> <PUBCHEM_ATOM_DEF_STEREO_COUNT>
0

> <PUBCHEM_ATOM_UDEF_STEREO_COUNT>
0

> <PUBCHEM_BOND_DEF_STEREO_COUNT>
0

> <PUBCHEM_BOND_UDEF_STEREO_COUNT>
0

> <PUBCHEM_ISOTOPIC_ATOM_COUNT>
0

> <PUBCHEM_COMPONENT_COUNT>
1

> <PUBCHEM_CACTVS_TAUTO_COUNT>
-1

> <PUBCHEM_COORDINATE_TYPE>
1
5
255

> <PUBCHEM_BONDANNOTATIONS>
1  11  8
1  15  8
10  15  8
11  12  8
12  17  8
13  18  8
13  19  8
16  23  8
16  24  8
18  21  8
19  22  8
20  21  8
20  22  8
23  25  8
27  28  8
27  29  8
28  30  8
29  31  8
3  24  8
3  25  8
30  32  8
31  32  8
5  14  8
5  17  8
9  10  8
9  11  8
9  14  8

$$$$
