21362754
  -OEChem-03202505262D

 29 31  0     0  0  0  0  0  0999 V2000
    7.3991   -2.4263    0.0000 Cl  0  0  0  0  0  0  0  0  0  0  0  0
    7.9235    2.2071    0.0000 O   0  0  0  0  0  0  0  0  0  0  0  0
    8.3031    0.5172    0.0000 O   0  0  0  0  0  0  0  0  0  0  0  0
    4.5274    0.4343    0.0000 N   0  0  0  0  0  0  0  0  0  0  0  0
    6.6498    1.0333    0.0000 N   0  0  0  0  0  0  0  0  0  0  0  0
    2.0000   -0.6899    0.0000 N   0  0  0  0  0  0  0  0  0  0  0  0
    5.0274   -1.1046    0.0000 C   0  0  0  0  0  0  0  0  0  0  0  0
    5.3364   -0.1535    0.0000 C   0  0  0  0  0  0  0  0  0  0  0  0
    4.0274   -1.1046    0.0000 C   0  0  0  0  0  0  0  0  0  0  0  0
    3.7183   -0.1535    0.0000 C   0  0  0  0  0  0  0  0  0  0  0  0
    6.3518    0.0788    0.0000 C   0  0  0  0  0  0  0  0  0  0  0  0
    5.7123   -1.8893    0.0000 C   0  0  0  0  0  0  0  0  0  0  0  0
    7.0547   -0.6899    0.0000 C   0  0  0  0  0  0  0  0  0  0  0  0
    3.3424   -1.8893    0.0000 C   0  0  0  0  0  0  0  0  0  0  0  0
    6.7328   -1.6806    0.0000 C   0  0  0  0  0  0  0  0  0  0  0  0
    2.7029    0.0788    0.0000 C   0  0  0  0  0  0  0  0  0  0  0  0
    2.3219   -1.6806    0.0000 C   0  0  0  0  0  0  0  0  0  0  0  0
    7.6255    1.2525    0.0000 C   0  0  0  0  0  0  0  0  0  0  0  0
    8.8991    2.4263    0.0000 C   0  0  0  0  0  0  0  0  0  0  0  0
    4.5274    1.0543    0.0000 H   0  0  0  0  0  0  0  0  0  0  0  0
    5.5139   -2.4767    0.0000 H   0  0  0  0  0  0  0  0  0  0  0  0
    7.6607   -0.5587    0.0000 H   0  0  0  0  0  0  0  0  0  0  0  0
    3.5408   -2.4767    0.0000 H   0  0  0  0  0  0  0  0  0  0  0  0
    2.5182    0.6706    0.0000 H   0  0  0  0  0  0  0  0  0  0  0  0
    6.2296    1.4892    0.0000 H   0  0  0  0  0  0  0  0  0  0  0  0
    1.9088   -2.1429    0.0000 H   0  0  0  0  0  0  0  0  0  0  0  0
    9.0350    1.8214    0.0000 H   0  0  0  0  0  0  0  0  0  0  0  0
    9.5041    2.5622    0.0000 H   0  0  0  0  0  0  0  0  0  0  0  0
    8.7632    3.0312    0.0000 H   0  0  0  0  0  0  0  0  0  0  0  0
  1 15  1  0  0  0  0
  2 18  1  0  0  0  0
  2 19  1  0  0  0  0
  3 18  2  0  0  0  0
  4  8  1  0  0  0  0
  4 10  1  0  0  0  0
  4 20  1  0  0  0  0
  5 11  1  0  0  0  0
  5 18  1  0  0  0  0
  5 25  1  0  0  0  0
  6 16  2  0  0  0  0
  6 17  1  0  0  0  0
  7  8  2  0  0  0  0
  7  9  1  0  0  0  0
  7 12  1  0  0  0  0
  8 11  1  0  0  0  0
  9 10  2  0  0  0  0
  9 14  1  0  0  0  0
 10 16  1  0  0  0  0
 11 13  2  0  0  0  0
 12 15  2  0  0  0  0
 12 21  1  0  0  0  0
 13 15  1  0  0  0  0
 13 22  1  0  0  0  0
 14 17  2  0  0  0  0
 14 23  1  0  0  0  0
 16 24  1  0  0  0  0
 17 26  1  0  0  0  0
 19 27  1  0  0  0  0
 19 28  1  0  0  0  0
 19 29  1  0  0  0  0
M  END
> <PUBCHEM_COMPOUND_CID>
21362754

> <PUBCHEM_COMPOUND_CANONICALIZED>
1

> <PUBCHEM_CACTVS_COMPLEXITY>
355

> <PUBCHEM_CACTVS_HBOND_ACCEPTOR>
3

> <PUBCHEM_CACTVS_HBOND_DONOR>
2

> <PUBCHEM_CACTVS_ROTATABLE_BOND>
2

> <PUBCHEM_CACTVS_SUBSKEYS>
AAADccBzMAAEAAAAAAAAAAAAAAAAAWAAAAA8QAAAAAAAAFgB/gAAHgIQAAAADArBHiY+yPLJlACoAzRnXACCgCQxFyAI2SA4dpkIYOLBk5GUIAhglADIyAcQgMAOgABAYAICACAAAIDABAQAQAAAAAAAAA==

> <PUBCHEM_IUPAC_OPENEYE_NAME>
methyl N-(6-chloro-9H-pyrido[3,4-b]indol-8-yl)carbamate

> <PUBCHEM_IUPAC_CAS_NAME>
N-(6-chloro-9H-pyrido[3,4-b]indol-8-yl)carbamic acid methyl ester

> <PUBCHEM_IUPAC_NAME_MARKUP>
methyl <I>N</I>-(6-chloro-9<I>H</I>-pyrido[3,4-b]indol-8-yl)carbamate

> <PUBCHEM_IUPAC_NAME>
methyl N-(6-chloro-9H-pyrido[3,4-b]indol-8-yl)carbamate

> <PUBCHEM_IUPAC_SYSTEMATIC_NAME>
methyl N-(6-chloranyl-9H-pyrido[3,4-b]indol-8-yl)carbamate

> <PUBCHEM_IUPAC_TRADITIONAL_NAME>
N-(6-chloro-9H-beta-carbolin-8-yl)carbamic acid methyl ester

> <PUBCHEM_IUPAC_INCHI>
InChI=1S/C13H10ClN3O2/c1-19-13(18)17-10-5-7(14)4-9-8-2-3-15-6-11(8)16-12(9)10/h2-6,16H,1H3,(H,17,18)

> <PUBCHEM_IUPAC_INCHIKEY>
JEHPZRUZZZAMNG-UHFFFAOYSA-N

> <PUBCHEM_XLOGP3_AA>
2.5

> <PUBCHEM_EXACT_MASS>
275.0461543

> <PUBCHEM_MOLECULAR_FORMULA>
C13H10ClN3O2

> <PUBCHEM_MOLECULAR_WEIGHT>
275.69

> <PUBCHEM_SMILES>
COC(=O)NC1=CC(=CC2=C1NC3=C2C=CN=C3)Cl

> <PUBCHEM_OPENEYE_CAN_SMILES>
COC(=O)NC1=CC(=CC2=C1NC3=C2C=CN=C3)Cl

> <PUBCHEM_OPENEYE_ISO_SMILES>
COC(=O)NC1=CC(=CC2=C1NC3=C2C=CN=C3)Cl

> <PUBCHEM_CACTVS_TPSA>
67

> <PUBCHEM_MONOISOTOPIC_WEIGHT>
275.0461543

> <PUBCHEM_TOTAL_CHARGE>
0

> <PUBCHEM_HEAVY_ATOM_COUNT>
19

> <PUBCHEM_ATOM_DEF_STEREO_COUNT>
0

> <PUBCHEM_ATOM_UDEF_STEREO_COUNT>
0

> <PUBCHEM_BOND_DEF_STEREO_COUNT>
0

> <PUBCHEM_BOND_UDEF_STEREO_COUNT>
0

> <PUBCHEM_ISOTOPIC_ATOM_COUNT>
0

> <PUBCHEM_COMPONENT_COUNT>
1

> <PUBCHEM_CACTVS_TAUTO_COUNT>
-1

> <PUBCHEM_COORDINATE_TYPE>
1
5
255

> <PUBCHEM_BONDANNOTATIONS>
10  16  8
11  13  8
12  15  8
13  15  8
14  17  8
4  10  8
4  8  8
6  16  8
6  17  8
7  12  8
7  8  8
7  9  8
8  11  8
9  10  8
9  14  8

$$$$
