44375763
  -OEChem-03202505442D

 55 59  0     0  0  0  0  0  0999 V2000
    6.8455    2.5374    0.0000 S   0  0  0  0  0  0  0  0  0  0  0  0
    6.7485    3.2061    0.0000 O   0  0  0  0  0  0  0  0  0  0  0  0
    4.6844    6.0576    0.0000 O   0  0  0  0  0  0  0  0  0  0  0  0
    4.6783    0.9280    0.0000 N   0  0  0  0  0  0  0  0  0  0  0  0
    5.9422    4.7953    0.0000 N   0  0  0  0  0  0  0  0  0  0  0  0
    3.9639   -2.4617    0.0000 N   0  0  0  0  0  0  0  0  0  0  0  0
    2.4026    4.3014    0.0000 N   0  0  0  0  0  0  0  0  0  0  0  0
    3.6067   -4.1565    0.0000 N   0  0  0  0  0  0  0  0  0  0  0  0
    5.2531   -3.6184    0.0000 N   0  0  0  0  0  0  0  0  0  0  0  0
    4.2280   -6.0576    0.0000 N   0  0  0  0  0  0  0  0  0  0  0  0
    5.2619    1.7327    0.0000 C   0  0  0  0  0  0  0  0  0  0  0  0
    4.6783    2.5374    0.0000 C   0  0  0  0  0  0  0  0  0  0  0  0
    3.7320    1.2327    0.0000 C   0  0  0  0  0  0  0  0  0  0  0  0
    3.7320    2.2327    0.0000 C   0  0  0  0  0  0  0  0  0  0  0  0
    4.9889   -0.0226    0.0000 C   0  0  0  0  0  0  0  0  0  0  0  0
    6.2619    1.7327    0.0000 C   0  0  0  0  0  0  0  0  0  0  0  0
    4.3211   -0.7669    0.0000 C   0  0  0  0  0  0  0  0  0  0  0  0
    4.9889    3.4879    0.0000 C   0  0  0  0  0  0  0  0  0  0  0  0
    2.8660    0.7327    0.0000 C   0  0  0  0  0  0  0  0  0  0  0  0
    2.8660    2.7327    0.0000 C   0  0  0  0  0  0  0  0  0  0  0  0
    6.8455    0.9280    0.0000 C   0  0  0  0  0  0  0  0  0  0  0  0
    4.6318   -1.7174    0.0000 C   0  0  0  0  0  0  0  0  0  0  0  0
    4.4026    4.2980    0.0000 C   0  0  0  0  0  0  0  0  0  0  0  0
    2.0000    1.2327    0.0000 C   0  0  0  0  0  0  0  0  0  0  0  0
    7.7917    1.2327    0.0000 C   0  0  0  0  0  0  0  0  0  0  0  0
    2.0000    2.2327    0.0000 C   0  0  0  0  0  0  0  0  0  0  0  0
    5.9405    3.7953    0.0000 C   0  0  0  0  0  0  0  0  0  0  0  0
    7.7917    2.2327    0.0000 C   0  0  0  0  0  0  0  0  0  0  0  0
    4.9917    5.1060    0.0000 C   0  0  0  0  0  0  0  0  0  0  0  0
    8.6577    0.7327    0.0000 C   0  0  0  0  0  0  0  0  0  0  0  0
    8.6577    2.7327    0.0000 C   0  0  0  0  0  0  0  0  0  0  0  0
    9.5238    1.2327    0.0000 C   0  0  0  0  0  0  0  0  0  0  0  0
    9.5238    2.2327    0.0000 C   0  0  0  0  0  0  0  0  0  0  0  0
    3.4026    4.2997    0.0000 C   0  0  0  0  0  0  0  0  0  0  0  0
    4.2746   -3.4122    0.0000 C   0  0  0  0  0  0  0  0  0  0  0  0
    3.9174   -5.1070    0.0000 C   0  0  0  0  0  0  0  0  0  0  0  0
    5.3715   -0.5105    0.0000 H   0  0  0  0  0  0  0  0  0  0  0  0
    5.5359    0.2694    0.0000 H   0  0  0  0  0  0  0  0  0  0  0  0
    3.9385   -0.2790    0.0000 H   0  0  0  0  0  0  0  0  0  0  0  0
    3.7742   -1.0589    0.0000 H   0  0  0  0  0  0  0  0  0  0  0  0
    2.8660    0.1127    0.0000 H   0  0  0  0  0  0  0  0  0  0  0  0
    2.8660    3.3527    0.0000 H   0  0  0  0  0  0  0  0  0  0  0  0
    6.6529    0.3386    0.0000 H   0  0  0  0  0  0  0  0  0  0  0  0
    5.0143   -2.2053    0.0000 H   0  0  0  0  0  0  0  0  0  0  0  0
    5.1787   -1.4254    0.0000 H   0  0  0  0  0  0  0  0  0  0  0  0
    1.4631    0.9227    0.0000 H   0  0  0  0  0  0  0  0  0  0  0  0
    1.4631    2.5427    0.0000 H   0  0  0  0  0  0  0  0  0  0  0  0
    6.4445    5.1589    0.0000 H   0  0  0  0  0  0  0  0  0  0  0  0
    8.6577    0.1127    0.0000 H   0  0  0  0  0  0  0  0  0  0  0  0
    8.6577    3.3527    0.0000 H   0  0  0  0  0  0  0  0  0  0  0  0
   10.0607    0.9227    0.0000 H   0  0  0  0  0  0  0  0  0  0  0  0
   10.0607    2.5427    0.0000 H   0  0  0  0  0  0  0  0  0  0  0  0
    3.0000   -4.0287    0.0000 H   0  0  0  0  0  0  0  0  0  0  0  0
    5.4457   -4.2078    0.0000 H   0  0  0  0  0  0  0  0  0  0  0  0
    5.6671   -3.1570    0.0000 H   0  0  0  0  0  0  0  0  0  0  0  0
  1 16  1  0  0  0  0
  1 28  1  0  0  0  0
  2 27  2  0  0  0  0
  3 29  2  0  0  0  0
  4 11  1  0  0  0  0
  4 13  1  0  0  0  0
  4 15  1  0  0  0  0
  5 27  1  0  0  0  0
  5 29  1  0  0  0  0
  5 48  1  0  0  0  0
  6 22  1  0  0  0  0
  6 35  2  0  0  0  0
  7 34  3  0  0  0  0
  8 35  1  0  0  0  0
  8 36  1  0  0  0  0
  8 53  1  0  0  0  0
  9 35  1  0  0  0  0
  9 54  1  0  0  0  0
  9 55  1  0  0  0  0
 10 36  3  0  0  0  0
 11 12  2  0  0  0  0
 11 16  1  0  0  0  0
 12 14  1  0  0  0  0
 12 18  1  0  0  0  0
 13 14  1  0  0  0  0
 13 19  2  0  0  0  0
 14 20  2  0  0  0  0
 15 17  1  0  0  0  0
 15 37  1  0  0  0  0
 15 38  1  0  0  0  0
 16 21  2  0  0  0  0
 17 22  1  0  0  0  0
 17 39  1  0  0  0  0
 17 40  1  0  0  0  0
 18 23  2  0  0  0  0
 18 27  1  0  0  0  0
 19 24  1  0  0  0  0
 19 41  1  0  0  0  0
 20 26  1  0  0  0  0
 20 42  1  0  0  0  0
 21 25  1  0  0  0  0
 21 43  1  0  0  0  0
 22 44  1  0  0  0  0
 22 45  1  0  0  0  0
 23 29  1  0  0  0  0
 23 34  1  0  0  0  0
 24 26  2  0  0  0  0
 24 46  1  0  0  0  0
 25 28  1  0  0  0  0
 25 30  2  0  0  0  0
 26 47  1  0  0  0  0
 28 31  2  0  0  0  0
 30 32  1  0  0  0  0
 30 49  1  0  0  0  0
 31 33  1  0  0  0  0
 31 50  1  0  0  0  0
 32 33  2  0  0  0  0
 32 51  1  0  0  0  0
 33 52  1  0  0  0  0
M  END
> <PUBCHEM_COMPOUND_CID>
44375763

> <PUBCHEM_COMPOUND_CANONICALIZED>
1

> <PUBCHEM_CACTVS_COMPLEXITY>
1070

> <PUBCHEM_CACTVS_HBOND_ACCEPTOR>
6

> <PUBCHEM_CACTVS_HBOND_DONOR>
3

> <PUBCHEM_CACTVS_ROTATABLE_BOND>
7

> <PUBCHEM_CACTVS_SUBSKEYS>
AAADceB7sABAAAAAAAAAAAAAAAAAAWJEAAAwYAAAAAAAAFgB/gAAHgQQAAAADAjB3gQxwfPMEAi8ByVydACjgKEhCjBJ2Dk4ZNiIoPLg1ZGEIAhghCDoyQccicCegAAAAAAGAAAAAAAAAAwAAAAAAAAAAA==

> <PUBCHEM_IUPAC_OPENEYE_NAME>
2-[3-[2-(benzothiophen-2-yl)-3-(4-cyano-2,5-dioxo-pyrrol-3-yl)indol-1-yl]propyl]-1-cyano-guanidine

> <PUBCHEM_IUPAC_CAS_NAME>
2-[3-[2-(1-benzothiophen-2-yl)-3-(4-cyano-2,5-dioxo-3-pyrrolyl)-1-indolyl]propyl]-1-cyanoguanidine

> <PUBCHEM_IUPAC_NAME_MARKUP>
2-[3-[2-(1-benzothiophen-2-yl)-3-(4-cyano-2,5-dioxopyrrol-3-yl)indol-1-yl]propyl]-1-cyanoguanidine

> <PUBCHEM_IUPAC_NAME>
2-[3-[2-(1-benzothiophen-2-yl)-3-(4-cyano-2,5-dioxopyrrol-3-yl)indol-1-yl]propyl]-1-cyanoguanidine

> <PUBCHEM_IUPAC_SYSTEMATIC_NAME>
2-[3-[2-(1-benzothiophen-2-yl)-3-[4-cyano-2,5-bis(oxidanylidene)pyrrol-3-yl]indol-1-yl]propyl]-1-cyano-guanidine

> <PUBCHEM_IUPAC_TRADITIONAL_NAME>
2-[3-[2-(benzothiophen-2-yl)-3-(4-cyano-2,5-diketo-3-pyrrolin-3-yl)indol-1-yl]propyl]-1-cyano-guanidine

> <PUBCHEM_IUPAC_INCHI>
InChI=1S/C26H19N7O2S/c27-13-17-22(25(35)32-24(17)34)21-16-7-2-3-8-18(16)33(11-5-10-30-26(29)31-14-28)23(21)20-12-15-6-1-4-9-19(15)36-20/h1-4,6-9,12H,5,10-11H2,(H3,29,30,31)(H,32,34,35)

> <PUBCHEM_IUPAC_INCHIKEY>
YDZJEODKNRAYMA-UHFFFAOYSA-N

> <PUBCHEM_XLOGP3_AA>
2.9

> <PUBCHEM_EXACT_MASS>
493.13209405

> <PUBCHEM_MOLECULAR_FORMULA>
C26H19N7O2S

> <PUBCHEM_MOLECULAR_WEIGHT>
493.5

> <PUBCHEM_SMILES>
C1=CC=C2C(=C1)C=C(S2)C3=C(C4=CC=CC=C4N3CCCN=C(N)NC#N)C5=C(C(=O)NC5=O)C#N

> <PUBCHEM_OPENEYE_CAN_SMILES>
C1=CC=C2C(=C1)C=C(S2)C3=C(C4=CC=CC=C4N3CCCN=C(N)NC#N)C5=C(C(=O)NC5=O)C#N

> <PUBCHEM_OPENEYE_ISO_SMILES>
C1=CC=C2C(=C1)C=C(S2)C3=C(C4=CC=CC=C4N3CCCN=C(N)NC#N)C5=C(C(=O)NC5=O)C#N

> <PUBCHEM_CACTVS_TPSA>
177

> <PUBCHEM_MONOISOTOPIC_WEIGHT>
493.13209405

> <PUBCHEM_TOTAL_CHARGE>
0

> <PUBCHEM_HEAVY_ATOM_COUNT>
36

> <PUBCHEM_ATOM_DEF_STEREO_COUNT>
0

> <PUBCHEM_ATOM_UDEF_STEREO_COUNT>
0

> <PUBCHEM_BOND_DEF_STEREO_COUNT>
0

> <PUBCHEM_BOND_UDEF_STEREO_COUNT>
0

> <PUBCHEM_ISOTOPIC_ATOM_COUNT>
0

> <PUBCHEM_COMPONENT_COUNT>
1

> <PUBCHEM_CACTVS_TAUTO_COUNT>
-1

> <PUBCHEM_COORDINATE_TYPE>
1
5
255

> <PUBCHEM_BONDANNOTATIONS>
1  16  8
1  28  8
11  12  8
12  14  8
13  14  8
13  19  8
14  20  8
16  21  8
19  24  8
20  26  8
21  25  8
24  26  8
25  28  8
25  30  8
28  31  8
30  32  8
31  33  8
32  33  8
4  11  8
4  13  8

$$$$
