49830555
  -OEChem-03202503312D

 59 62  0     0  0  0  0  0  0999 V2000
    4.2690   -1.2500    0.0000 S   0  0  0  0  0  0  0  0  0  0  0  0
    5.1350    7.2500    0.0000 F   0  0  0  0  0  0  0  0  0  0  0  0
    3.2690   -1.2500    0.0000 O   0  0  0  0  0  0  0  0  0  0  0  0
    5.2690   -1.2500    0.0000 O   0  0  0  0  0  0  0  0  0  0  0  0
    6.0010   -0.2500    0.0000 O   0  0  0  0  0  0  0  0  0  0  0  0
    4.2690   -5.2500    0.0000 N   0  0  0  0  0  0  0  0  0  0  0  0
    2.5369   -4.2500    0.0000 N   0  0  0  0  0  0  0  0  0  0  0  0
    4.2690   -0.2500    0.0000 N   0  0  0  0  0  0  0  0  0  0  0  0
    5.1350   -5.7500    0.0000 C   0  0  0  0  0  0  0  0  0  0  0  0
    5.1350   -6.7500    0.0000 C   0  0  0  0  0  0  0  0  0  0  0  0
    6.0010   -5.2500    0.0000 C   0  0  0  0  0  0  0  0  0  0  0  0
    6.0010   -7.2500    0.0000 C   0  0  0  0  0  0  0  0  0  0  0  0
    6.8671   -5.7500    0.0000 C   0  0  0  0  0  0  0  0  0  0  0  0
    6.8671   -6.7500    0.0000 C   0  0  0  0  0  0  0  0  0  0  0  0
    4.2690   -4.2500    0.0000 C   0  0  0  0  0  0  0  0  0  0  0  0
    3.4030   -3.7500    0.0000 C   0  0  0  0  0  0  0  0  0  0  0  0
    5.1350   -3.7500    0.0000 C   0  0  0  0  0  0  0  0  0  0  0  0
    3.4030   -2.7500    0.0000 C   0  0  0  0  0  0  0  0  0  0  0  0
    4.2690   -2.2500    0.0000 C   0  0  0  0  0  0  0  0  0  0  0  0
    5.1350   -2.7500    0.0000 C   0  0  0  0  0  0  0  0  0  0  0  0
    5.1350    0.2500    0.0000 C   0  0  0  0  0  0  0  0  0  0  0  0
    5.1350    1.2500    0.0000 C   0  0  0  0  0  0  0  0  0  0  0  0
    5.1350    3.2500    0.0000 C   0  0  0  0  0  0  0  0  0  0  0  0
    6.0010    1.7500    0.0000 C   0  0  0  0  0  0  0  0  0  0  0  0
    4.2690    1.7500    0.0000 C   0  0  0  0  0  0  0  0  0  0  0  0
    6.0010    2.7500    0.0000 C   0  0  0  0  0  0  0  0  0  0  0  0
    4.2690    2.7500    0.0000 C   0  0  0  0  0  0  0  0  0  0  0  0
    5.1350    4.2500    0.0000 C   0  0  0  0  0  0  0  0  0  0  0  0
    6.0010    4.7500    0.0000 C   0  0  0  0  0  0  0  0  0  0  0  0
    4.2690    4.7500    0.0000 C   0  0  0  0  0  0  0  0  0  0  0  0
    6.0010    5.7500    0.0000 C   0  0  0  0  0  0  0  0  0  0  0  0
    4.2690    5.7500    0.0000 C   0  0  0  0  0  0  0  0  0  0  0  0
    5.1350    6.2500    0.0000 C   0  0  0  0  0  0  0  0  0  0  0  0
    5.1350   -5.1300    0.0000 H   0  0  0  0  0  0  0  0  0  0  0  0
    4.5244   -6.6423    0.0000 H   0  0  0  0  0  0  0  0  0  0  0  0
    4.9230   -7.3326    0.0000 H   0  0  0  0  0  0  0  0  0  0  0  0
    6.3996   -4.7750    0.0000 H   0  0  0  0  0  0  0  0  0  0  0  0
    5.6025   -4.7750    0.0000 H   0  0  0  0  0  0  0  0  0  0  0  0
    5.6025   -7.7250    0.0000 H   0  0  0  0  0  0  0  0  0  0  0  0
    6.3996   -7.7250    0.0000 H   0  0  0  0  0  0  0  0  0  0  0  0
    7.4776   -5.8577    0.0000 H   0  0  0  0  0  0  0  0  0  0  0  0
    7.0791   -5.1674    0.0000 H   0  0  0  0  0  0  0  0  0  0  0  0
    7.0791   -7.3326    0.0000 H   0  0  0  0  0  0  0  0  0  0  0  0
    7.4776   -6.6423    0.0000 H   0  0  0  0  0  0  0  0  0  0  0  0
    3.7320   -5.5600    0.0000 H   0  0  0  0  0  0  0  0  0  0  0  0
    5.6720   -4.0600    0.0000 H   0  0  0  0  0  0  0  0  0  0  0  0
    2.8660   -2.4400    0.0000 H   0  0  0  0  0  0  0  0  0  0  0  0
    5.6720   -2.4400    0.0000 H   0  0  0  0  0  0  0  0  0  0  0  0
    2.0000   -3.9400    0.0000 H   0  0  0  0  0  0  0  0  0  0  0  0
    2.5369   -4.8700    0.0000 H   0  0  0  0  0  0  0  0  0  0  0  0
    3.7320    0.0600    0.0000 H   0  0  0  0  0  0  0  0  0  0  0  0
    6.5380    1.4400    0.0000 H   0  0  0  0  0  0  0  0  0  0  0  0
    3.7320    1.4400    0.0000 H   0  0  0  0  0  0  0  0  0  0  0  0
    6.5380    3.0600    0.0000 H   0  0  0  0  0  0  0  0  0  0  0  0
    3.7320    3.0600    0.0000 H   0  0  0  0  0  0  0  0  0  0  0  0
    6.5380    4.4400    0.0000 H   0  0  0  0  0  0  0  0  0  0  0  0
    3.7320    4.4400    0.0000 H   0  0  0  0  0  0  0  0  0  0  0  0
    6.5380    6.0600    0.0000 H   0  0  0  0  0  0  0  0  0  0  0  0
    3.7320    6.0600    0.0000 H   0  0  0  0  0  0  0  0  0  0  0  0
  1  3  2  0  0  0  0
  1  4  2  0  0  0  0
  1  8  1  0  0  0  0
  1 19  1  0  0  0  0
  2 33  1  0  0  0  0
  5 21  2  0  0  0  0
  6  9  1  0  0  0  0
  6 15  1  0  0  0  0
  6 45  1  0  0  0  0
  7 16  1  0  0  0  0
  7 49  1  0  0  0  0
  7 50  1  0  0  0  0
  8 21  1  0  0  0  0
  8 51  1  0  0  0  0
  9 10  1  0  0  0  0
  9 11  1  0  0  0  0
  9 34  1  0  0  0  0
 10 12  1  0  0  0  0
 10 35  1  0  0  0  0
 10 36  1  0  0  0  0
 11 13  1  0  0  0  0
 11 37  1  0  0  0  0
 11 38  1  0  0  0  0
 12 14  1  0  0  0  0
 12 39  1  0  0  0  0
 12 40  1  0  0  0  0
 13 14  1  0  0  0  0
 13 41  1  0  0  0  0
 13 42  1  0  0  0  0
 14 43  1  0  0  0  0
 14 44  1  0  0  0  0
 15 16  2  0  0  0  0
 15 17  1  0  0  0  0
 16 18  1  0  0  0  0
 17 20  2  0  0  0  0
 17 46  1  0  0  0  0
 18 19  2  0  0  0  0
 18 47  1  0  0  0  0
 19 20  1  0  0  0  0
 20 48  1  0  0  0  0
 21 22  1  0  0  0  0
 22 24  2  0  0  0  0
 22 25  1  0  0  0  0
 23 26  2  0  0  0  0
 23 27  1  0  0  0  0
 23 28  1  0  0  0  0
 24 26  1  0  0  0  0
 24 52  1  0  0  0  0
 25 27  2  0  0  0  0
 25 53  1  0  0  0  0
 26 54  1  0  0  0  0
 27 55  1  0  0  0  0
 28 29  2  0  0  0  0
 28 30  1  0  0  0  0
 29 31  1  0  0  0  0
 29 56  1  0  0  0  0
 30 32  2  0  0  0  0
 30 57  1  0  0  0  0
 31 33  2  0  0  0  0
 31 58  1  0  0  0  0
 32 33  1  0  0  0  0
 32 59  1  0  0  0  0
M  END
> <PUBCHEM_COMPOUND_CID>
49830555

> <PUBCHEM_COMPOUND_CANONICALIZED>
1

> <PUBCHEM_CACTVS_COMPLEXITY>
736

> <PUBCHEM_CACTVS_HBOND_ACCEPTOR>
6

> <PUBCHEM_CACTVS_HBOND_DONOR>
3

> <PUBCHEM_CACTVS_ROTATABLE_BOND>
6

> <PUBCHEM_CACTVS_SUBSKEYS>
AAADceB7MQBAAAAAAAAAAAAAAAAAAAAAAAAwYMGAAAAAAAABUAAAHwQQQAAADCjB2AwwwYLAAAKIAiVSUHDCABAlAgAIiJkIdMgIYDLAlZGUIQxgkADIyYcYiMCOwAQAACAAACCACAAAQAAAQAAAAAAAAA==

> <PUBCHEM_IUPAC_OPENEYE_NAME>
N-[3-amino-4-(cyclohexylamino)phenyl]sulfonyl-4-(4-fluorophenyl)benzamide

> <PUBCHEM_IUPAC_CAS_NAME>
N-[3-amino-4-(cyclohexylamino)phenyl]sulfonyl-4-(4-fluorophenyl)benzamide

> <PUBCHEM_IUPAC_NAME_MARKUP>
<I>N</I>-[3-amino-4-(cyclohexylamino)phenyl]sulfonyl-4-(4-fluorophenyl)benzamide

> <PUBCHEM_IUPAC_NAME>
N-[3-amino-4-(cyclohexylamino)phenyl]sulfonyl-4-(4-fluorophenyl)benzamide

> <PUBCHEM_IUPAC_SYSTEMATIC_NAME>
N-[3-azanyl-4-(cyclohexylamino)phenyl]sulfonyl-4-(4-fluorophenyl)benzamide

> <PUBCHEM_IUPAC_TRADITIONAL_NAME>
N-[3-amino-4-(cyclohexylamino)phenyl]sulfonyl-4-(4-fluorophenyl)benzamide

> <PUBCHEM_IUPAC_INCHI>
InChI=1S/C25H26FN3O3S/c26-20-12-10-18(11-13-20)17-6-8-19(9-7-17)25(30)29-33(31,32)22-14-15-24(23(27)16-22)28-21-4-2-1-3-5-21/h6-16,21,28H,1-5,27H2,(H,29,30)

> <PUBCHEM_IUPAC_INCHIKEY>
NWYXEDPSORNUPL-UHFFFAOYSA-N

> <PUBCHEM_XLOGP3_AA>
5.2

> <PUBCHEM_EXACT_MASS>
467.16789104

> <PUBCHEM_MOLECULAR_FORMULA>
C25H26FN3O3S

> <PUBCHEM_MOLECULAR_WEIGHT>
467.6

> <PUBCHEM_SMILES>
C1CCC(CC1)NC2=C(C=C(C=C2)S(=O)(=O)NC(=O)C3=CC=C(C=C3)C4=CC=C(C=C4)F)N

> <PUBCHEM_OPENEYE_CAN_SMILES>
C1CCC(CC1)NC2=C(C=C(C=C2)S(=O)(=O)NC(=O)C3=CC=C(C=C3)C4=CC=C(C=C4)F)N

> <PUBCHEM_OPENEYE_ISO_SMILES>
C1CCC(CC1)NC2=C(C=C(C=C2)S(=O)(=O)NC(=O)C3=CC=C(C=C3)C4=CC=C(C=C4)F)N

> <PUBCHEM_CACTVS_TPSA>
110

> <PUBCHEM_MONOISOTOPIC_WEIGHT>
467.16789104

> <PUBCHEM_TOTAL_CHARGE>
0

> <PUBCHEM_HEAVY_ATOM_COUNT>
33

> <PUBCHEM_ATOM_DEF_STEREO_COUNT>
0

> <PUBCHEM_ATOM_UDEF_STEREO_COUNT>
0

> <PUBCHEM_BOND_DEF_STEREO_COUNT>
0

> <PUBCHEM_BOND_UDEF_STEREO_COUNT>
0

> <PUBCHEM_ISOTOPIC_ATOM_COUNT>
0

> <PUBCHEM_COMPONENT_COUNT>
1

> <PUBCHEM_CACTVS_TAUTO_COUNT>
-1

> <PUBCHEM_COORDINATE_TYPE>
1
5
255

> <PUBCHEM_BONDANNOTATIONS>
15  16  8
15  17  8
16  18  8
17  20  8
18  19  8
19  20  8
22  24  8
22  25  8
23  26  8
23  27  8
24  26  8
25  27  8
28  29  8
28  30  8
29  31  8
30  32  8
31  33  8
32  33  8

$$$$
