49840306
  -OEChem-03202500102D

 63 66  0     0  0  0  0  0  0999 V2000
    2.7702    1.4339    0.0000 F   0  0  0  0  0  0  0  0  0  0  0  0
    2.0000    0.2479    0.0000 F   0  0  0  0  0  0  0  0  0  0  0  0
    3.9563    0.6637    0.0000 F   0  0  0  0  0  0  0  0  0  0  0  0
   11.0278    1.0709    0.0000 N   0  0  0  0  0  0  0  0  0  0  0  0
   13.6259    2.5709    0.0000 N   0  0  0  0  0  0  0  0  0  0  0  0
    8.4297    0.5709    0.0000 N   0  0  0  0  0  0  0  0  0  0  0  0
    7.5637   -0.9291    0.0000 N   0  0  0  0  0  0  0  0  0  0  0  0
    3.0169   -2.1315    0.0000 N   0  0  0  0  0  0  0  0  0  0  0  0
    2.5169   -1.2655    0.0000 N   0  0  0  0  0  0  0  0  0  0  0  0
    5.8317   -0.9291    0.0000 N   0  0  0  0  0  0  0  0  0  0  0  0
    6.6977    0.5709    0.0000 N   0  0  0  0  0  0  0  0  0  0  0  0
   12.7599    2.0709    0.0000 C   0  0  0  0  0  0  0  0  0  0  0  0
   12.7599    1.0709    0.0000 C   0  0  0  0  0  0  0  0  0  0  0  0
   11.8938    2.5709    0.0000 C   0  0  0  0  0  0  0  0  0  0  0  0
   11.8938    0.5709    0.0000 C   0  0  0  0  0  0  0  0  0  0  0  0
   11.0278    2.0709    0.0000 C   0  0  0  0  0  0  0  0  0  0  0  0
   10.1618    0.5709    0.0000 C   0  0  0  0  0  0  0  0  0  0  0  0
   14.4919    2.0709    0.0000 C   0  0  0  0  0  0  0  0  0  0  0  0
   13.6259    3.5709    0.0000 C   0  0  0  0  0  0  0  0  0  0  0  0
   10.1618   -0.4291    0.0000 C   0  0  0  0  0  0  0  0  0  0  0  0
    9.2958    1.0709    0.0000 C   0  0  0  0  0  0  0  0  0  0  0  0
    9.2958   -0.9291    0.0000 C   0  0  0  0  0  0  0  0  0  0  0  0
    8.4297   -0.4291    0.0000 C   0  0  0  0  0  0  0  0  0  0  0  0
    4.7382   -2.5928    0.0000 C   0  0  0  0  0  0  0  0  0  0  0  0
    3.9951   -1.9236    0.0000 C   0  0  0  0  0  0  0  0  0  0  0  0
    4.0996   -0.9291    0.0000 C   0  0  0  0  0  0  0  0  0  0  0  0
    3.1861   -0.5224    0.0000 C   0  0  0  0  0  0  0  0  0  0  0  0
    4.5303   -3.5709    0.0000 C   0  0  0  0  0  0  0  0  0  0  0  0
    5.6893   -2.2837    0.0000 C   0  0  0  0  0  0  0  0  0  0  0  0
    4.9656   -0.4291    0.0000 C   0  0  0  0  0  0  0  0  0  0  0  0
    6.6977   -0.4291    0.0000 C   0  0  0  0  0  0  0  0  0  0  0  0
    2.9782    0.4558    0.0000 C   0  0  0  0  0  0  0  0  0  0  0  0
    4.9656    0.5709    0.0000 C   0  0  0  0  0  0  0  0  0  0  0  0
    5.8317    1.0709    0.0000 C   0  0  0  0  0  0  0  0  0  0  0  0
   13.2968    1.7609    0.0000 H   0  0  0  0  0  0  0  0  0  0  0  0
   12.9719    0.4883    0.0000 H   0  0  0  0  0  0  0  0  0  0  0  0
   13.3704    1.1786    0.0000 H   0  0  0  0  0  0  0  0  0  0  0  0
   12.2924    3.0458    0.0000 H   0  0  0  0  0  0  0  0  0  0  0  0
   11.4953    3.0458    0.0000 H   0  0  0  0  0  0  0  0  0  0  0  0
   11.4953    0.0960    0.0000 H   0  0  0  0  0  0  0  0  0  0  0  0
   12.2924    0.0960    0.0000 H   0  0  0  0  0  0  0  0  0  0  0  0
   10.8158    2.6535    0.0000 H   0  0  0  0  0  0  0  0  0  0  0  0
   10.4172    1.9632    0.0000 H   0  0  0  0  0  0  0  0  0  0  0  0
   14.1819    1.5340    0.0000 H   0  0  0  0  0  0  0  0  0  0  0  0
   15.0288    1.7609    0.0000 H   0  0  0  0  0  0  0  0  0  0  0  0
   14.8019    2.6078    0.0000 H   0  0  0  0  0  0  0  0  0  0  0  0
   14.2459    3.5709    0.0000 H   0  0  0  0  0  0  0  0  0  0  0  0
   13.6259    4.1909    0.0000 H   0  0  0  0  0  0  0  0  0  0  0  0
   13.0059    3.5709    0.0000 H   0  0  0  0  0  0  0  0  0  0  0  0
   10.6987   -0.7391    0.0000 H   0  0  0  0  0  0  0  0  0  0  0  0
    9.2958    1.6909    0.0000 H   0  0  0  0  0  0  0  0  0  0  0  0
    9.2958   -1.5491    0.0000 H   0  0  0  0  0  0  0  0  0  0  0  0
    5.1990   -3.0076    0.0000 H   0  0  0  0  0  0  0  0  0  0  0  0
    7.5637   -1.5491    0.0000 H   0  0  0  0  0  0  0  0  0  0  0  0
    3.9239   -3.4420    0.0000 H   0  0  0  0  0  0  0  0  0  0  0  0
    4.4014   -4.1774    0.0000 H   0  0  0  0  0  0  0  0  0  0  0  0
    5.1368   -3.6998    0.0000 H   0  0  0  0  0  0  0  0  0  0  0  0
    5.8809   -2.8734    0.0000 H   0  0  0  0  0  0  0  0  0  0  0  0
    6.2789   -2.0921    0.0000 H   0  0  0  0  0  0  0  0  0  0  0  0
    5.4977   -1.6941    0.0000 H   0  0  0  0  0  0  0  0  0  0  0  0
    2.7648   -2.6979    0.0000 H   0  0  0  0  0  0  0  0  0  0  0  0
    4.4287    0.8809    0.0000 H   0  0  0  0  0  0  0  0  0  0  0  0
    5.8317    1.6909    0.0000 H   0  0  0  0  0  0  0  0  0  0  0  0
  1 32  1  0  0  0  0
  2 32  1  0  0  0  0
  3 32  1  0  0  0  0
  4 15  1  0  0  0  0
  4 16  1  0  0  0  0
  4 17  1  0  0  0  0
  5 12  1  0  0  0  0
  5 18  1  0  0  0  0
  5 19  1  0  0  0  0
  6 21  1  0  0  0  0
  6 23  2  0  0  0  0
  7 23  1  0  0  0  0
  7 31  1  0  0  0  0
  7 54  1  0  0  0  0
  8  9  1  0  0  0  0
  8 25  1  0  0  0  0
  8 61  1  0  0  0  0
  9 27  2  0  0  0  0
 10 30  2  0  0  0  0
 10 31  1  0  0  0  0
 11 31  2  0  0  0  0
 11 34  1  0  0  0  0
 12 13  1  0  0  0  0
 12 14  1  0  0  0  0
 12 35  1  0  0  0  0
 13 15  1  0  0  0  0
 13 36  1  0  0  0  0
 13 37  1  0  0  0  0
 14 16  1  0  0  0  0
 14 38  1  0  0  0  0
 14 39  1  0  0  0  0
 15 40  1  0  0  0  0
 15 41  1  0  0  0  0
 16 42  1  0  0  0  0
 16 43  1  0  0  0  0
 17 20  1  0  0  0  0
 17 21  2  0  0  0  0
 18 44  1  0  0  0  0
 18 45  1  0  0  0  0
 18 46  1  0  0  0  0
 19 47  1  0  0  0  0
 19 48  1  0  0  0  0
 19 49  1  0  0  0  0
 20 22  2  0  0  0  0
 20 50  1  0  0  0  0
 21 51  1  0  0  0  0
 22 23  1  0  0  0  0
 22 52  1  0  0  0  0
 24 25  1  0  0  0  0
 24 28  1  0  0  0  0
 24 29  1  0  0  0  0
 24 53  1  0  0  0  0
 25 26  2  0  0  0  0
 26 27  1  0  0  0  0
 26 30  1  0  0  0  0
 27 32  1  0  0  0  0
 28 55  1  0  0  0  0
 28 56  1  0  0  0  0
 28 57  1  0  0  0  0
 29 58  1  0  0  0  0
 29 59  1  0  0  0  0
 29 60  1  0  0  0  0
 30 33  1  0  0  0  0
 33 34  2  0  0  0  0
 33 62  1  0  0  0  0
 34 63  1  0  0  0  0
M  END
> <PUBCHEM_COMPOUND_CID>
49840306

> <PUBCHEM_COMPOUND_CANONICALIZED>
1

> <PUBCHEM_CACTVS_COMPLEXITY>
640

> <PUBCHEM_CACTVS_HBOND_ACCEPTOR>
10

> <PUBCHEM_CACTVS_HBOND_DONOR>
2

> <PUBCHEM_CACTVS_ROTATABLE_BOND>
6

> <PUBCHEM_CACTVS_SUBSKEYS>
AAADceB7wYAAAAAAAAAAAAAAAAAAAWAAAAAsWLAAAAAAAAAB+AAAHQAYAAAADSjBHhQ/8JfrEACiAzZnZACShCkxEqAZ+SA4dJiIaOLA2dGUpAhomALIyCcQgEAOAAAAAAAAAAAAAAAAAAAAAAAAAAAAAA==

> <PUBCHEM_IUPAC_OPENEYE_NAME>
N-[5-[4-(dimethylamino)-1-piperidyl]-2-pyridyl]-4-[5-isopropyl-3-(trifluoromethyl)-1H-pyrazol-4-yl]pyrimidin-2-amine

> <PUBCHEM_IUPAC_CAS_NAME>
N-[5-[4-(dimethylamino)-1-piperidinyl]-2-pyridinyl]-4-[5-propan-2-yl-3-(trifluoromethyl)-1H-pyrazol-4-yl]-2-pyrimidinamine

> <PUBCHEM_IUPAC_NAME_MARKUP>
<I>N</I>-[5-[4-(dimethylamino)piperidin-1-yl]pyridin-2-yl]-4-[5-propan-2-yl-3-(trifluoromethyl)-1<I>H</I>-pyrazol-4-yl]pyrimidin-2-amine

> <PUBCHEM_IUPAC_NAME>
N-[5-[4-(dimethylamino)piperidin-1-yl]pyridin-2-yl]-4-[5-propan-2-yl-3-(trifluoromethyl)-1H-pyrazol-4-yl]pyrimidin-2-amine

> <PUBCHEM_IUPAC_SYSTEMATIC_NAME>
N-[5-[4-(dimethylamino)piperidin-1-yl]pyridin-2-yl]-4-[5-propan-2-yl-3-(trifluoromethyl)-1H-pyrazol-4-yl]pyrimidin-2-amine

> <PUBCHEM_IUPAC_TRADITIONAL_NAME>
[1-[6-[[4-[5-isopropyl-3-(trifluoromethyl)-1H-pyrazol-4-yl]pyrimidin-2-yl]amino]-3-pyridyl]-4-piperidyl]-dimethyl-amine

> <PUBCHEM_IUPAC_INCHI>
InChI=1S/C23H29F3N8/c1-14(2)20-19(21(32-31-20)23(24,25)26)17-7-10-27-22(29-17)30-18-6-5-16(13-28-18)34-11-8-15(9-12-34)33(3)4/h5-7,10,13-15H,8-9,11-12H2,1-4H3,(H,31,32)(H,27,28,29,30)

> <PUBCHEM_IUPAC_INCHIKEY>
DBZXYASRLGQZEQ-UHFFFAOYSA-N

> <PUBCHEM_XLOGP3_AA>
4.1

> <PUBCHEM_EXACT_MASS>
474.24672745

> <PUBCHEM_MOLECULAR_FORMULA>
C23H29F3N8

> <PUBCHEM_MOLECULAR_WEIGHT>
474.5

> <PUBCHEM_SMILES>
CC(C)C1=C(C(=NN1)C(F)(F)F)C2=NC(=NC=C2)NC3=NC=C(C=C3)N4CCC(CC4)N(C)C

> <PUBCHEM_OPENEYE_CAN_SMILES>
CC(C)C1=C(C(=NN1)C(F)(F)F)C2=NC(=NC=C2)NC3=NC=C(C=C3)N4CCC(CC4)N(C)C

> <PUBCHEM_OPENEYE_ISO_SMILES>
CC(C)C1=C(C(=NN1)C(F)(F)F)C2=NC(=NC=C2)NC3=NC=C(C=C3)N4CCC(CC4)N(C)C

> <PUBCHEM_CACTVS_TPSA>
85.9

> <PUBCHEM_MONOISOTOPIC_WEIGHT>
474.24672745

> <PUBCHEM_TOTAL_CHARGE>
0

> <PUBCHEM_HEAVY_ATOM_COUNT>
34

> <PUBCHEM_ATOM_DEF_STEREO_COUNT>
0

> <PUBCHEM_ATOM_UDEF_STEREO_COUNT>
0

> <PUBCHEM_BOND_DEF_STEREO_COUNT>
0

> <PUBCHEM_BOND_UDEF_STEREO_COUNT>
0

> <PUBCHEM_ISOTOPIC_ATOM_COUNT>
0

> <PUBCHEM_COMPONENT_COUNT>
1

> <PUBCHEM_CACTVS_TAUTO_COUNT>
-1

> <PUBCHEM_COORDINATE_TYPE>
1
5
255

> <PUBCHEM_BONDANNOTATIONS>
10  30  8
10  31  8
11  31  8
11  34  8
17  20  8
17  21  8
20  22  8
22  23  8
25  26  8
26  27  8
30  33  8
33  34  8
6  21  8
6  23  8
8  25  8
8  9  8
9  27  8

$$$$
