44376043
  -OEChem-03202505422D

 57 61  0     0  0  0  0  0  0999 V2000
    6.8455    1.8816    0.0000 S   0  0  0  0  0  0  0  0  0  0  0  0
    3.9639   -3.1176    0.0000 S   0  0  0  0  0  0  0  0  0  0  0  0
    6.7485    2.5503    0.0000 O   0  0  0  0  0  0  0  0  0  0  0  0
    4.6844    5.4017    0.0000 O   0  0  0  0  0  0  0  0  0  0  0  0
    2.9010    2.7787    0.0000 O   0  0  0  0  0  0  0  0  0  0  0  0
    4.6783    0.2721    0.0000 N   0  0  0  0  0  0  0  0  0  0  0  0
    5.9422    4.1394    0.0000 N   0  0  0  0  0  0  0  0  0  0  0  0
    3.6067   -4.8124    0.0000 N   0  0  0  0  0  0  0  0  0  0  0  0
    5.2531   -4.2743    0.0000 N   0  0  0  0  0  0  0  0  0  0  0  0
    5.2619    1.0768    0.0000 C   0  0  0  0  0  0  0  0  0  0  0  0
    4.6783    1.8816    0.0000 C   0  0  0  0  0  0  0  0  0  0  0  0
    3.7320    0.5768    0.0000 C   0  0  0  0  0  0  0  0  0  0  0  0
    3.7320    1.5768    0.0000 C   0  0  0  0  0  0  0  0  0  0  0  0
    4.9889   -0.6784    0.0000 C   0  0  0  0  0  0  0  0  0  0  0  0
    4.9889    2.8321    0.0000 C   0  0  0  0  0  0  0  0  0  0  0  0
    6.2619    1.0768    0.0000 C   0  0  0  0  0  0  0  0  0  0  0  0
    4.3211   -1.4227    0.0000 C   0  0  0  0  0  0  0  0  0  0  0  0
    2.8660    0.0768    0.0000 C   0  0  0  0  0  0  0  0  0  0  0  0
    2.8660    2.0768    0.0000 C   0  0  0  0  0  0  0  0  0  0  0  0
    4.4026    3.6421    0.0000 C   0  0  0  0  0  0  0  0  0  0  0  0
    6.8455    0.2721    0.0000 C   0  0  0  0  0  0  0  0  0  0  0  0
    5.9405    3.1394    0.0000 C   0  0  0  0  0  0  0  0  0  0  0  0
    4.6318   -2.3732    0.0000 C   0  0  0  0  0  0  0  0  0  0  0  0
    2.0000    0.5768    0.0000 C   0  0  0  0  0  0  0  0  0  0  0  0
    2.0000    1.5768    0.0000 C   0  0  0  0  0  0  0  0  0  0  0  0
    7.7917    0.5768    0.0000 C   0  0  0  0  0  0  0  0  0  0  0  0
    7.7917    1.5768    0.0000 C   0  0  0  0  0  0  0  0  0  0  0  0
    4.9917    4.4501    0.0000 C   0  0  0  0  0  0  0  0  0  0  0  0
    3.4026    3.6438    0.0000 C   0  0  0  0  0  0  0  0  0  0  0  0
    8.6577    0.0768    0.0000 C   0  0  0  0  0  0  0  0  0  0  0  0
    8.6577    2.0768    0.0000 C   0  0  0  0  0  0  0  0  0  0  0  0
    9.5238    0.5768    0.0000 C   0  0  0  0  0  0  0  0  0  0  0  0
    9.5238    1.5768    0.0000 C   0  0  0  0  0  0  0  0  0  0  0  0
    2.9040    4.5107    0.0000 C   0  0  0  0  0  0  0  0  0  0  0  0
    4.2746   -4.0681    0.0000 C   0  0  0  0  0  0  0  0  0  0  0  0
    5.3715   -1.1663    0.0000 H   0  0  0  0  0  0  0  0  0  0  0  0
    5.5359   -0.3864    0.0000 H   0  0  0  0  0  0  0  0  0  0  0  0
    3.9385   -0.9348    0.0000 H   0  0  0  0  0  0  0  0  0  0  0  0
    3.7742   -1.7148    0.0000 H   0  0  0  0  0  0  0  0  0  0  0  0
    2.8660   -0.5432    0.0000 H   0  0  0  0  0  0  0  0  0  0  0  0
    2.8660    2.6968    0.0000 H   0  0  0  0  0  0  0  0  0  0  0  0
    6.6529   -0.3172    0.0000 H   0  0  0  0  0  0  0  0  0  0  0  0
    5.0143   -2.8612    0.0000 H   0  0  0  0  0  0  0  0  0  0  0  0
    5.1787   -2.0812    0.0000 H   0  0  0  0  0  0  0  0  0  0  0  0
    1.4631    0.2668    0.0000 H   0  0  0  0  0  0  0  0  0  0  0  0
    1.4631    1.8868    0.0000 H   0  0  0  0  0  0  0  0  0  0  0  0
    6.4445    4.5030    0.0000 H   0  0  0  0  0  0  0  0  0  0  0  0
    8.6577   -0.5432    0.0000 H   0  0  0  0  0  0  0  0  0  0  0  0
    8.6577    2.6968    0.0000 H   0  0  0  0  0  0  0  0  0  0  0  0
   10.0607    0.2668    0.0000 H   0  0  0  0  0  0  0  0  0  0  0  0
   10.0607    1.8868    0.0000 H   0  0  0  0  0  0  0  0  0  0  0  0
    3.4415    4.8198    0.0000 H   0  0  0  0  0  0  0  0  0  0  0  0
    2.5950    5.0482    0.0000 H   0  0  0  0  0  0  0  0  0  0  0  0
    2.3666    4.2017    0.0000 H   0  0  0  0  0  0  0  0  0  0  0  0
    3.7993   -5.4017    0.0000 H   0  0  0  0  0  0  0  0  0  0  0  0
    3.0000   -4.6845    0.0000 H   0  0  0  0  0  0  0  0  0  0  0  0
    5.4457   -4.8636    0.0000 H   0  0  0  0  0  0  0  0  0  0  0  0
  1 16  1  0  0  0  0
  1 27  1  0  0  0  0
  2 23  1  0  0  0  0
  2 35  1  0  0  0  0
  3 22  2  0  0  0  0
  4 28  2  0  0  0  0
  5 29  2  0  0  0  0
  6 10  1  0  0  0  0
  6 12  1  0  0  0  0
  6 14  1  0  0  0  0
  7 22  1  0  0  0  0
  7 28  1  0  0  0  0
  7 47  1  0  0  0  0
  8 35  1  0  0  0  0
  8 55  1  0  0  0  0
  8 56  1  0  0  0  0
  9 35  2  0  0  0  0
  9 57  1  0  0  0  0
 10 11  2  0  0  0  0
 10 16  1  0  0  0  0
 11 13  1  0  0  0  0
 11 15  1  0  0  0  0
 12 13  1  0  0  0  0
 12 18  2  0  0  0  0
 13 19  2  0  0  0  0
 14 17  1  0  0  0  0
 14 36  1  0  0  0  0
 14 37  1  0  0  0  0
 15 20  2  0  0  0  0
 15 22  1  0  0  0  0
 16 21  2  0  0  0  0
 17 23  1  0  0  0  0
 17 38  1  0  0  0  0
 17 39  1  0  0  0  0
 18 24  1  0  0  0  0
 18 40  1  0  0  0  0
 19 25  1  0  0  0  0
 19 41  1  0  0  0  0
 20 28  1  0  0  0  0
 20 29  1  0  0  0  0
 21 26  1  0  0  0  0
 21 42  1  0  0  0  0
 23 43  1  0  0  0  0
 23 44  1  0  0  0  0
 24 25  2  0  0  0  0
 24 45  1  0  0  0  0
 25 46  1  0  0  0  0
 26 27  1  0  0  0  0
 26 30  2  0  0  0  0
 27 31  2  0  0  0  0
 29 34  1  0  0  0  0
 30 32  1  0  0  0  0
 30 48  1  0  0  0  0
 31 33  1  0  0  0  0
 31 49  1  0  0  0  0
 32 33  2  0  0  0  0
 32 50  1  0  0  0  0
 33 51  1  0  0  0  0
 34 52  1  0  0  0  0
 34 53  1  0  0  0  0
 34 54  1  0  0  0  0
M  END
> <PUBCHEM_COMPOUND_CID>
44376043

> <PUBCHEM_COMPOUND_CANONICALIZED>
1

> <PUBCHEM_CACTVS_COMPLEXITY>
938

> <PUBCHEM_CACTVS_HBOND_ACCEPTOR>
6

> <PUBCHEM_CACTVS_HBOND_DONOR>
3

> <PUBCHEM_CACTVS_ROTATABLE_BOND>
8

> <PUBCHEM_CACTVS_SUBSKEYS>
AAADceB7sABgAAAAAAAAAAAAAAAAAWJEAAAwYAAAAAAAAFgB/gAAHgQQAAAADAzF3gSzwfPMEAisA6VydACDgqDhCjBI2Dk4ZNgIIProlZGEIAhghCDoyQccicCegAAAAAAGAAAAAAAAAAwAAAAAAAAAAA==

> <PUBCHEM_IUPAC_OPENEYE_NAME>
2-[3-[3-(4-acetyl-2,5-dioxo-pyrrol-3-yl)-2-(benzothiophen-2-yl)indol-1-yl]propyl]isothiourea

> <PUBCHEM_IUPAC_CAS_NAME>
carbamimidothioic acid 3-[3-(4-acetyl-2,5-dioxo-3-pyrrolyl)-2-(1-benzothiophen-2-yl)-1-indolyl]propyl ester

> <PUBCHEM_IUPAC_NAME_MARKUP>
3-[3-(4-acetyl-2,5-dioxopyrrol-3-yl)-2-(1-benzothiophen-2-yl)indol-1-yl]propyl carbamimidothioate

> <PUBCHEM_IUPAC_NAME>
3-[3-(4-acetyl-2,5-dioxopyrrol-3-yl)-2-(1-benzothiophen-2-yl)indol-1-yl]propyl carbamimidothioate

> <PUBCHEM_IUPAC_SYSTEMATIC_NAME>
3-[2-(1-benzothiophen-2-yl)-3-[4-ethanoyl-2,5-bis(oxidanylidene)pyrrol-3-yl]indol-1-yl]propyl carbamimidothioate

> <PUBCHEM_IUPAC_TRADITIONAL_NAME>
2-[3-[3-(4-acetyl-2,5-diketo-3-pyrrolin-3-yl)-2-(benzothiophen-2-yl)indol-1-yl]propyl]isothiourea

> <PUBCHEM_IUPAC_INCHI>
InChI=1S/C26H22N4O3S2/c1-14(31)20-22(25(33)29-24(20)32)21-16-8-3-4-9-17(16)30(11-6-12-34-26(27)28)23(21)19-13-15-7-2-5-10-18(15)35-19/h2-5,7-10,13H,6,11-12H2,1H3,(H3,27,28)(H,29,32,33)

> <PUBCHEM_IUPAC_INCHIKEY>
XNKIVXYFRPYKHO-UHFFFAOYSA-N

> <PUBCHEM_XLOGP3_AA>
3.9

> <PUBCHEM_EXACT_MASS>
502.11333292

> <PUBCHEM_MOLECULAR_FORMULA>
C26H22N4O3S2

> <PUBCHEM_MOLECULAR_WEIGHT>
502.6

> <PUBCHEM_SMILES>
CC(=O)C1=C(C(=O)NC1=O)C2=C(N(C3=CC=CC=C32)CCCSC(=N)N)C4=CC5=CC=CC=C5S4

> <PUBCHEM_OPENEYE_CAN_SMILES>
CC(=O)C1=C(C(=O)NC1=O)C2=C(N(C3=CC=CC=C32)CCCSC(=N)N)C4=CC5=CC=CC=C5S4

> <PUBCHEM_OPENEYE_ISO_SMILES>
CC(=O)C1=C(C(=O)NC1=O)C2=C(N(C3=CC=CC=C32)CCCSC(=N)N)C4=CC5=CC=CC=C5S4

> <PUBCHEM_CACTVS_TPSA>
172

> <PUBCHEM_MONOISOTOPIC_WEIGHT>
502.11333292

> <PUBCHEM_TOTAL_CHARGE>
0

> <PUBCHEM_HEAVY_ATOM_COUNT>
35

> <PUBCHEM_ATOM_DEF_STEREO_COUNT>
0

> <PUBCHEM_ATOM_UDEF_STEREO_COUNT>
0

> <PUBCHEM_BOND_DEF_STEREO_COUNT>
0

> <PUBCHEM_BOND_UDEF_STEREO_COUNT>
0

> <PUBCHEM_ISOTOPIC_ATOM_COUNT>
0

> <PUBCHEM_COMPONENT_COUNT>
1

> <PUBCHEM_CACTVS_TAUTO_COUNT>
-1

> <PUBCHEM_COORDINATE_TYPE>
1
5
255

> <PUBCHEM_BONDANNOTATIONS>
1  16  8
1  27  8
10  11  8
11  13  8
12  13  8
12  18  8
13  19  8
16  21  8
18  24  8
19  25  8
21  26  8
24  25  8
26  27  8
26  30  8
27  31  8
30  32  8
31  33  8
32  33  8
6  10  8
6  12  8

$$$$
