49830364
  -OEChem-03202504152D

 73 76  0     0  0  0  0  0  0999 V2000
    7.2764   -0.3680    0.0000 S   0  0  0  0  0  0  0  0  0  0  0  0
    5.4641   -3.5633    0.0000 O   0  0  0  0  0  0  0  0  0  0  0  0
   10.1653    4.5055    0.0000 O   0  0  0  0  0  0  0  0  0  0  0  0
    2.8660   -6.0633    0.0000 N   0  0  0  0  0  0  0  0  0  0  0  0
    3.7320   -3.5633    0.0000 N   0  0  0  0  0  0  0  0  0  0  0  0
    4.5981    0.9367    0.0000 N   0  0  0  0  0  0  0  0  0  0  0  0
    5.4641    2.4367    0.0000 N   0  0  0  0  0  0  0  0  0  0  0  0
    8.5190    5.0436    0.0000 N   0  0  0  0  0  0  0  0  0  0  0  0
    9.8082    6.2003    0.0000 N   0  0  0  0  0  0  0  0  0  0  0  0
    2.8660   -5.0633    0.0000 C   0  0  0  0  0  0  0  0  0  0  0  0
    2.0000   -6.5633    0.0000 C   0  0  0  0  0  0  0  0  0  0  0  0
    3.7320   -6.5633    0.0000 C   0  0  0  0  0  0  0  0  0  0  0  0
    3.7320   -4.5633    0.0000 C   0  0  0  0  0  0  0  0  0  0  0  0
    6.3301    0.9367    0.0000 C   0  0  0  0  0  0  0  0  0  0  0  0
    7.2764    1.2415    0.0000 C   0  0  0  0  0  0  0  0  0  0  0  0
    6.3301   -0.0633    0.0000 C   0  0  0  0  0  0  0  0  0  0  0  0
    2.0000   -7.5633    0.0000 C   0  0  0  0  0  0  0  0  0  0  0  0
    3.7320   -7.5633    0.0000 C   0  0  0  0  0  0  0  0  0  0  0  0
    7.5870    2.1920    0.0000 C   0  0  0  0  0  0  0  0  0  0  0  0
    5.4641   -0.5633    0.0000 C   0  0  0  0  0  0  0  0  0  0  0  0
    5.4641    1.4367    0.0000 C   0  0  0  0  0  0  0  0  0  0  0  0
    7.8600    0.4367    0.0000 C   0  0  0  0  0  0  0  0  0  0  0  0
    5.4641   -1.5633    0.0000 C   0  0  0  0  0  0  0  0  0  0  0  0
    4.5981   -3.0633    0.0000 C   0  0  0  0  0  0  0  0  0  0  0  0
    6.9192    2.9363    0.0000 C   0  0  0  0  0  0  0  0  0  0  0  0
    8.5655    2.3982    0.0000 C   0  0  0  0  0  0  0  0  0  0  0  0
    4.5981   -0.0633    0.0000 C   0  0  0  0  0  0  0  0  0  0  0  0
    4.5981   -2.0633    0.0000 C   0  0  0  0  0  0  0  0  0  0  0  0
    8.2083    4.0930    0.0000 C   0  0  0  0  0  0  0  0  0  0  0  0
    7.2298    3.8868    0.0000 C   0  0  0  0  0  0  0  0  0  0  0  0
    8.8762    3.3487    0.0000 C   0  0  0  0  0  0  0  0  0  0  0  0
    9.4975    5.2498    0.0000 C   0  0  0  0  0  0  0  0  0  0  0  0
   10.7867    6.4065    0.0000 C   0  0  0  0  0  0  0  0  0  0  0  0
   11.4545    5.6622    0.0000 C   0  0  0  0  0  0  0  0  0  0  0  0
   12.4330    5.8684    0.0000 C   0  0  0  0  0  0  0  0  0  0  0  0
   11.0973    7.3570    0.0000 C   0  0  0  0  0  0  0  0  0  0  0  0
   12.7437    6.8190    0.0000 C   0  0  0  0  0  0  0  0  0  0  0  0
   12.0758    7.5633    0.0000 C   0  0  0  0  0  0  0  0  0  0  0  0
   13.1009    5.1241    0.0000 C   0  0  0  0  0  0  0  0  0  0  0  0
    2.6540   -4.4806    0.0000 H   0  0  0  0  0  0  0  0  0  0  0  0
    2.2554   -5.1709    0.0000 H   0  0  0  0  0  0  0  0  0  0  0  0
    1.7880   -5.9806    0.0000 H   0  0  0  0  0  0  0  0  0  0  0  0
    1.3894   -6.6709    0.0000 H   0  0  0  0  0  0  0  0  0  0  0  0
    4.3426   -6.6709    0.0000 H   0  0  0  0  0  0  0  0  0  0  0  0
    3.9441   -5.9806    0.0000 H   0  0  0  0  0  0  0  0  0  0  0  0
    3.9441   -5.1459    0.0000 H   0  0  0  0  0  0  0  0  0  0  0  0
    4.3426   -4.4556    0.0000 H   0  0  0  0  0  0  0  0  0  0  0  0
    1.3800   -7.5633    0.0000 H   0  0  0  0  0  0  0  0  0  0  0  0
    2.0000   -8.1833    0.0000 H   0  0  0  0  0  0  0  0  0  0  0  0
    2.6200   -7.5633    0.0000 H   0  0  0  0  0  0  0  0  0  0  0  0
    3.1120   -7.5633    0.0000 H   0  0  0  0  0  0  0  0  0  0  0  0
    3.7320   -8.1833    0.0000 H   0  0  0  0  0  0  0  0  0  0  0  0
    4.3520   -7.5633    0.0000 H   0  0  0  0  0  0  0  0  0  0  0  0
    3.1951   -3.2533    0.0000 H   0  0  0  0  0  0  0  0  0  0  0  0
    8.4800    0.4367    0.0000 H   0  0  0  0  0  0  0  0  0  0  0  0
    6.0010   -1.8733    0.0000 H   0  0  0  0  0  0  0  0  0  0  0  0
    6.3125    2.8084    0.0000 H   0  0  0  0  0  0  0  0  0  0  0  0
    8.9796    1.9368    0.0000 H   0  0  0  0  0  0  0  0  0  0  0  0
    4.0611   -0.3733    0.0000 H   0  0  0  0  0  0  0  0  0  0  0  0
    4.0611   -1.7533    0.0000 H   0  0  0  0  0  0  0  0  0  0  0  0
    6.8158    4.3483    0.0000 H   0  0  0  0  0  0  0  0  0  0  0  0
    9.4828    3.4766    0.0000 H   0  0  0  0  0  0  0  0  0  0  0  0
    4.9272    2.7467    0.0000 H   0  0  0  0  0  0  0  0  0  0  0  0
    6.0010    2.7467    0.0000 H   0  0  0  0  0  0  0  0  0  0  0  0
    8.1049    5.5050    0.0000 H   0  0  0  0  0  0  0  0  0  0  0  0
    9.3941    6.6618    0.0000 H   0  0  0  0  0  0  0  0  0  0  0  0
   11.2619    5.0729    0.0000 H   0  0  0  0  0  0  0  0  0  0  0  0
   10.6833    7.8185    0.0000 H   0  0  0  0  0  0  0  0  0  0  0  0
   13.3504    6.9468    0.0000 H   0  0  0  0  0  0  0  0  0  0  0  0
   12.2684    8.1526    0.0000 H   0  0  0  0  0  0  0  0  0  0  0  0
   12.6394    4.7101    0.0000 H   0  0  0  0  0  0  0  0  0  0  0  0
   13.5149    4.6627    0.0000 H   0  0  0  0  0  0  0  0  0  0  0  0
   13.5623    5.5382    0.0000 H   0  0  0  0  0  0  0  0  0  0  0  0
  1 16  1  0  0  0  0
  1 22  1  0  0  0  0
  2 24  2  0  0  0  0
  3 32  2  0  0  0  0
  4 10  1  0  0  0  0
  4 11  1  0  0  0  0
  4 12  1  0  0  0  0
  5 13  1  0  0  0  0
  5 24  1  0  0  0  0
  5 54  1  0  0  0  0
  6 21  2  0  0  0  0
  6 27  1  0  0  0  0
  7 21  1  0  0  0  0
  7 63  1  0  0  0  0
  7 64  1  0  0  0  0
  8 29  1  0  0  0  0
  8 32  1  0  0  0  0
  8 65  1  0  0  0  0
  9 32  1  0  0  0  0
  9 33  1  0  0  0  0
  9 66  1  0  0  0  0
 10 13  1  0  0  0  0
 10 40  1  0  0  0  0
 10 41  1  0  0  0  0
 11 17  1  0  0  0  0
 11 42  1  0  0  0  0
 11 43  1  0  0  0  0
 12 18  1  0  0  0  0
 12 44  1  0  0  0  0
 12 45  1  0  0  0  0
 13 46  1  0  0  0  0
 13 47  1  0  0  0  0
 14 15  1  0  0  0  0
 14 16  2  0  0  0  0
 14 21  1  0  0  0  0
 15 19  1  0  0  0  0
 15 22  2  0  0  0  0
 16 20  1  0  0  0  0
 17 48  1  0  0  0  0
 17 49  1  0  0  0  0
 17 50  1  0  0  0  0
 18 51  1  0  0  0  0
 18 52  1  0  0  0  0
 18 53  1  0  0  0  0
 19 25  2  0  0  0  0
 19 26  1  0  0  0  0
 20 23  1  0  0  0  0
 20 27  2  0  0  0  0
 22 55  1  0  0  0  0
 23 28  2  3  0  0  0
 23 56  1  0  0  0  0
 24 28  1  0  0  0  0
 25 30  1  0  0  0  0
 25 57  1  0  0  0  0
 26 31  2  0  0  0  0
 26 58  1  0  0  0  0
 27 59  1  0  0  0  0
 28 60  1  0  0  0  0
 29 30  2  0  0  0  0
 29 31  1  0  0  0  0
 30 61  1  0  0  0  0
 31 62  1  0  0  0  0
 33 34  1  0  0  0  0
 33 36  2  0  0  0  0
 34 35  2  0  0  0  0
 34 67  1  0  0  0  0
 35 37  1  0  0  0  0
 35 39  1  0  0  0  0
 36 38  1  0  0  0  0
 36 68  1  0  0  0  0
 37 38  2  0  0  0  0
 37 69  1  0  0  0  0
 38 70  1  0  0  0  0
 39 71  1  0  0  0  0
 39 72  1  0  0  0  0
 39 73  1  0  0  0  0
M  END
> <PUBCHEM_COMPOUND_CID>
49830364

> <PUBCHEM_COMPOUND_CANONICALIZED>
1

> <PUBCHEM_CACTVS_COMPLEXITY>
815

> <PUBCHEM_CACTVS_HBOND_ACCEPTOR>
6

> <PUBCHEM_CACTVS_HBOND_DONOR>
4

> <PUBCHEM_CACTVS_ROTATABLE_BOND>
10

> <PUBCHEM_CACTVS_SUBSKEYS>
AAADcfB7sABAAAAAAAAAAAAAAAAAASAAAAA8YIAAAAAAAFgB/AAAHgQQAAAADAjF2gS/8dPIEAisAjd3dACDgKkxCjAI2LAoZNiIYGLgkZGUIAxolgLoyacQgMAOiAAAQAAAAAAQAACAAAAAAAAAAAAAAA==

> <PUBCHEM_IUPAC_OPENEYE_NAME>
3-[4-amino-3-[4-(m-tolylcarbamoylamino)phenyl]thieno[3,2-c]pyridin-7-yl]-N-[2-(diethylamino)ethyl]prop-2-enamide

> <PUBCHEM_IUPAC_CAS_NAME>
3-[4-amino-3-[4-[[(3-methylanilino)-oxomethyl]amino]phenyl]-7-thieno[3,2-c]pyridinyl]-N-[2-(diethylamino)ethyl]-2-propenamide

> <PUBCHEM_IUPAC_NAME_MARKUP>
3-[4-amino-3-[4-[(3-methylphenyl)carbamoylamino]phenyl]thieno[3,2-c]pyridin-7-yl]-<I>N</I>-[2-(diethylamino)ethyl]prop-2-enamide

> <PUBCHEM_IUPAC_NAME>
3-[4-amino-3-[4-[(3-methylphenyl)carbamoylamino]phenyl]thieno[3,2-c]pyridin-7-yl]-N-[2-(diethylamino)ethyl]prop-2-enamide

> <PUBCHEM_IUPAC_SYSTEMATIC_NAME>
3-[4-azanyl-3-[4-[(3-methylphenyl)carbamoylamino]phenyl]thieno[3,2-c]pyridin-7-yl]-N-[2-(diethylamino)ethyl]prop-2-enamide

> <PUBCHEM_IUPAC_TRADITIONAL_NAME>
3-[4-amino-3-[4-(m-tolylcarbamoylamino)phenyl]thieno[3,2-c]pyridin-7-yl]-N-[2-(diethylamino)ethyl]acrylamide

> <PUBCHEM_IUPAC_INCHI>
InChI=1S/C30H34N6O2S/c1-4-36(5-2)16-15-32-26(37)14-11-22-18-33-29(31)27-25(19-39-28(22)27)21-9-12-23(13-10-21)34-30(38)35-24-8-6-7-20(3)17-24/h6-14,17-19H,4-5,15-16H2,1-3H3,(H2,31,33)(H,32,37)(H2,34,35,38)

> <PUBCHEM_IUPAC_INCHIKEY>
XJSFDMGICAWQFS-UHFFFAOYSA-N

> <PUBCHEM_XLOGP3_AA>
4.6

> <PUBCHEM_EXACT_MASS>
542.24639552

> <PUBCHEM_MOLECULAR_FORMULA>
C30H34N6O2S

> <PUBCHEM_MOLECULAR_WEIGHT>
542.7

> <PUBCHEM_SMILES>
CCN(CC)CCNC(=O)C=CC1=CN=C(C2=C1SC=C2C3=CC=C(C=C3)NC(=O)NC4=CC=CC(=C4)C)N

> <PUBCHEM_OPENEYE_CAN_SMILES>
CCN(CC)CCNC(=O)C=CC1=CN=C(C2=C1SC=C2C3=CC=C(C=C3)NC(=O)NC4=CC=CC(=C4)C)N

> <PUBCHEM_OPENEYE_ISO_SMILES>
CCN(CC)CCNC(=O)C=CC1=CN=C(C2=C1SC=C2C3=CC=C(C=C3)NC(=O)NC4=CC=CC(=C4)C)N

> <PUBCHEM_CACTVS_TPSA>
141

> <PUBCHEM_MONOISOTOPIC_WEIGHT>
542.24639552

> <PUBCHEM_TOTAL_CHARGE>
0

> <PUBCHEM_HEAVY_ATOM_COUNT>
39

> <PUBCHEM_ATOM_DEF_STEREO_COUNT>
0

> <PUBCHEM_ATOM_UDEF_STEREO_COUNT>
0

> <PUBCHEM_BOND_DEF_STEREO_COUNT>
0

> <PUBCHEM_BOND_UDEF_STEREO_COUNT>
1

> <PUBCHEM_ISOTOPIC_ATOM_COUNT>
0

> <PUBCHEM_COMPONENT_COUNT>
1

> <PUBCHEM_CACTVS_TAUTO_COUNT>
-1

> <PUBCHEM_COORDINATE_TYPE>
1
5
255

> <PUBCHEM_BONDANNOTATIONS>
1  16  8
1  22  8
14  15  8
14  16  8
14  21  8
15  22  8
16  20  8
19  25  8
19  26  8
20  27  8
23  28  1
25  30  8
26  31  8
29  30  8
29  31  8
33  34  8
33  36  8
34  35  8
35  37  8
36  38  8
37  38  8
6  21  8
6  27  8

$$$$
