49830746
  -OEChem-03202502392D

 52 55  0     1  0  0  0  0  0999 V2000
    8.0622    0.4827    0.0000 O   0  0  0  0  0  0  0  0  0  0  0  0
    6.3301    2.4827    0.0000 N   0  0  0  0  0  0  0  0  0  0  0  0
    6.3301    0.4827    0.0000 N   0  0  0  0  0  0  0  0  0  0  0  0
    7.1962   -2.0173    0.0000 N   0  0  0  0  0  0  0  0  0  0  0  0
    2.0000   -5.0173    0.0000 N   0  0  0  0  0  0  0  0  0  0  0  0
    8.0622    2.4827    0.0000 C   0  0  0  0  0  0  0  0  0  0  0  0
    8.0622    3.4827    0.0000 C   0  0  0  0  0  0  0  0  0  0  0  0
    7.1962    1.9827    0.0000 C   0  0  3  0  0  0  0  0  0  0  0  0
    8.9282    3.9827    0.0000 C   0  0  0  0  0  0  0  0  0  0  0  0
    8.9282    4.9827    0.0000 C   0  0  0  0  0  0  0  0  0  0  0  0
    7.1962    3.9827    0.0000 C   0  0  0  0  0  0  0  0  0  0  0  0
    7.1962    0.9827    0.0000 C   0  0  0  0  0  0  0  0  0  0  0  0
    9.8222    3.4480    0.0000 C   0  0  0  0  0  0  0  0  0  0  0  0
    8.0622    5.4827    0.0000 C   0  0  0  0  0  0  0  0  0  0  0  0
    7.1962    4.9827    0.0000 C   0  0  0  0  0  0  0  0  0  0  0  0
    9.8222    5.5173    0.0000 C   0  0  0  0  0  0  0  0  0  0  0  0
   10.7282    3.9618    0.0000 C   0  0  0  0  0  0  0  0  0  0  0  0
   10.7282    5.0035    0.0000 C   0  0  0  0  0  0  0  0  0  0  0  0
    6.3301   -0.5173    0.0000 C   0  0  0  0  0  0  0  0  0  0  0  0
    5.4641   -1.0173    0.0000 C   0  0  0  0  0  0  0  0  0  0  0  0
    5.4641   -2.0173    0.0000 C   0  0  0  0  0  0  0  0  0  0  0  0
    7.1962   -1.0173    0.0000 C   0  0  0  0  0  0  0  0  0  0  0  0
    6.3301   -2.5173    0.0000 C   0  0  0  0  0  0  0  0  0  0  0  0
    4.5981   -2.5173    0.0000 C   0  0  0  0  0  0  0  0  0  0  0  0
    4.5981   -3.5173    0.0000 C   0  0  0  0  0  0  0  0  0  0  0  0
    3.7320   -4.0173    0.0000 C   0  0  0  0  0  0  0  0  0  0  0  0
    3.7320   -5.0173    0.0000 C   0  0  0  0  0  0  0  0  0  0  0  0
    2.8660   -3.5173    0.0000 C   0  0  0  0  0  0  0  0  0  0  0  0
    2.8660   -5.5173    0.0000 C   0  0  0  0  0  0  0  0  0  0  0  0
    2.0000   -4.0173    0.0000 C   0  0  0  0  0  0  0  0  0  0  0  0
    8.2742    1.9001    0.0000 H   0  0  0  0  0  0  0  0  0  0  0  0
    8.6728    2.5903    0.0000 H   0  0  0  0  0  0  0  0  0  0  0  0
    6.6592    1.6727    0.0000 H   0  0  0  0  0  0  0  0  0  0  0  0
    6.6592    3.6727    0.0000 H   0  0  0  0  0  0  0  0  0  0  0  0
    9.8150    2.8280    0.0000 H   0  0  0  0  0  0  0  0  0  0  0  0
    8.0622    6.1027    0.0000 H   0  0  0  0  0  0  0  0  0  0  0  0
    6.6592    5.2927    0.0000 H   0  0  0  0  0  0  0  0  0  0  0  0
    5.7932    2.1727    0.0000 H   0  0  0  0  0  0  0  0  0  0  0  0
    6.3301    3.1027    0.0000 H   0  0  0  0  0  0  0  0  0  0  0  0
    9.8150    6.1373    0.0000 H   0  0  0  0  0  0  0  0  0  0  0  0
    5.7932    0.7927    0.0000 H   0  0  0  0  0  0  0  0  0  0  0  0
   11.2639    3.6498    0.0000 H   0  0  0  0  0  0  0  0  0  0  0  0
   11.2639    5.3156    0.0000 H   0  0  0  0  0  0  0  0  0  0  0  0
    4.9272   -0.7073    0.0000 H   0  0  0  0  0  0  0  0  0  0  0  0
    7.7331   -0.7073    0.0000 H   0  0  0  0  0  0  0  0  0  0  0  0
    6.3301   -3.1373    0.0000 H   0  0  0  0  0  0  0  0  0  0  0  0
    4.0611   -2.2073    0.0000 H   0  0  0  0  0  0  0  0  0  0  0  0
    5.1350   -3.8273    0.0000 H   0  0  0  0  0  0  0  0  0  0  0  0
    4.2690   -5.3273    0.0000 H   0  0  0  0  0  0  0  0  0  0  0  0
    2.8660   -2.8973    0.0000 H   0  0  0  0  0  0  0  0  0  0  0  0
    2.8660   -6.1373    0.0000 H   0  0  0  0  0  0  0  0  0  0  0  0
    1.4631   -3.7073    0.0000 H   0  0  0  0  0  0  0  0  0  0  0  0
  1 12  2  0  0  0  0
  2  8  1  0  0  0  0
  2 38  1  0  0  0  0
  2 39  1  0  0  0  0
  3 12  1  0  0  0  0
  3 19  1  0  0  0  0
  3 41  1  0  0  0  0
  4 22  1  0  0  0  0
  4 23  2  0  0  0  0
  5 29  2  0  0  0  0
  5 30  1  0  0  0  0
  6  7  1  0  0  0  0
  6  8  1  0  0  0  0
  6 31  1  0  0  0  0
  6 32  1  0  0  0  0
  7  9  1  0  0  0  0
  7 11  2  0  0  0  0
  8 12  1  0  0  0  0
  8 33  1  0  0  0  0
  9 10  1  0  0  0  0
  9 13  2  0  0  0  0
 10 14  1  0  0  0  0
 10 16  2  0  0  0  0
 11 15  1  0  0  0  0
 11 34  1  0  0  0  0
 13 17  1  0  0  0  0
 13 35  1  0  0  0  0
 14 15  2  0  0  0  0
 14 36  1  0  0  0  0
 15 37  1  0  0  0  0
 16 18  1  0  0  0  0
 16 40  1  0  0  0  0
 17 18  2  0  0  0  0
 17 42  1  0  0  0  0
 18 43  1  0  0  0  0
 19 20  1  0  0  0  0
 19 22  2  0  0  0  0
 20 21  2  0  0  0  0
 20 44  1  0  0  0  0
 21 23  1  0  0  0  0
 21 24  1  0  0  0  0
 22 45  1  0  0  0  0
 23 46  1  0  0  0  0
 24 25  2  3  0  0  0
 24 47  1  0  0  0  0
 25 26  1  0  0  0  0
 25 48  1  0  0  0  0
 26 27  2  0  0  0  0
 26 28  1  0  0  0  0
 27 29  1  0  0  0  0
 27 49  1  0  0  0  0
 28 30  2  0  0  0  0
 28 50  1  0  0  0  0
 29 51  1  0  0  0  0
 30 52  1  0  0  0  0
M  END
> <PUBCHEM_COMPOUND_CID>
49830746

> <PUBCHEM_COMPOUND_CANONICALIZED>
1

> <PUBCHEM_CACTVS_COMPLEXITY>
573

> <PUBCHEM_CACTVS_HBOND_ACCEPTOR>
4

> <PUBCHEM_CACTVS_HBOND_DONOR>
2

> <PUBCHEM_CACTVS_ROTATABLE_BOND>
6

> <PUBCHEM_CACTVS_SUBSKEYS>
AAADceB7oAAAAAAAAAAAAAAAAAAAAAAAAAA8eIEAAAAAAADB9AAAHgAQAAAADCjBmgQ8wNLIEACoAjV3VACCgCAxEiAI2KG4dJgIYPLAkZGUIAhglADIyAcYiMCOgAACAAAQAAAAAAQAACAAAAAAAAAAAA==

> <PUBCHEM_IUPAC_OPENEYE_NAME>
2-amino-3-(1-naphthyl)-N-[5-[2-(4-pyridyl)vinyl]-3-pyridyl]propanamide

> <PUBCHEM_IUPAC_CAS_NAME>
2-amino-3-(1-naphthalenyl)-N-[5-(2-pyridin-4-ylethenyl)-3-pyridinyl]propanamide

> <PUBCHEM_IUPAC_NAME_MARKUP>
2-amino-3-naphthalen-1-yl-<I>N</I>-[5-(2-pyridin-4-ylethenyl)pyridin-3-yl]propanamide

> <PUBCHEM_IUPAC_NAME>
2-amino-3-naphthalen-1-yl-N-[5-(2-pyridin-4-ylethenyl)pyridin-3-yl]propanamide

> <PUBCHEM_IUPAC_SYSTEMATIC_NAME>
2-azanyl-3-naphthalen-1-yl-N-[5-(2-pyridin-4-ylethenyl)pyridin-3-yl]propanamide

> <PUBCHEM_IUPAC_TRADITIONAL_NAME>
2-amino-3-(1-naphthyl)-N-[5-[2-(4-pyridyl)vinyl]-3-pyridyl]propionamide

> <PUBCHEM_IUPAC_INCHI>
InChI=1S/C25H22N4O/c26-24(15-21-6-3-5-20-4-1-2-7-23(20)21)25(30)29-22-14-19(16-28-17-22)9-8-18-10-12-27-13-11-18/h1-14,16-17,24H,15,26H2,(H,29,30)

> <PUBCHEM_IUPAC_INCHIKEY>
WZSVRUCBLPTNFX-UHFFFAOYSA-N

> <PUBCHEM_XLOGP3_AA>
3.6

> <PUBCHEM_EXACT_MASS>
394.17936134

> <PUBCHEM_MOLECULAR_FORMULA>
C25H22N4O

> <PUBCHEM_MOLECULAR_WEIGHT>
394.5

> <PUBCHEM_SMILES>
C1=CC=C2C(=C1)C=CC=C2CC(C(=O)NC3=CN=CC(=C3)C=CC4=CC=NC=C4)N

> <PUBCHEM_OPENEYE_CAN_SMILES>
C1=CC=C2C(=C1)C=CC=C2CC(C(=O)NC3=CN=CC(=C3)C=CC4=CC=NC=C4)N

> <PUBCHEM_OPENEYE_ISO_SMILES>
C1=CC=C2C(=C1)C=CC=C2CC(C(=O)NC3=CN=CC(=C3)C=CC4=CC=NC=C4)N

> <PUBCHEM_CACTVS_TPSA>
80.9

> <PUBCHEM_MONOISOTOPIC_WEIGHT>
394.17936134

> <PUBCHEM_TOTAL_CHARGE>
0

> <PUBCHEM_HEAVY_ATOM_COUNT>
30

> <PUBCHEM_ATOM_DEF_STEREO_COUNT>
0

> <PUBCHEM_ATOM_UDEF_STEREO_COUNT>
1

> <PUBCHEM_BOND_DEF_STEREO_COUNT>
0

> <PUBCHEM_BOND_UDEF_STEREO_COUNT>
1

> <PUBCHEM_ISOTOPIC_ATOM_COUNT>
0

> <PUBCHEM_COMPONENT_COUNT>
1

> <PUBCHEM_CACTVS_TAUTO_COUNT>
-1

> <PUBCHEM_COORDINATE_TYPE>
1
5
255

> <PUBCHEM_BONDANNOTATIONS>
10  14  8
10  16  8
11  15  8
13  17  8
14  15  8
16  18  8
17  18  8
19  20  8
19  22  8
8  2  3
20  21  8
21  23  8
24  25  1
26  27  8
26  28  8
27  29  8
28  30  8
4  22  8
4  23  8
5  29  8
5  30  8
7  11  8
7  9  8
9  10  8
9  13  8

$$$$
