1893668
  -OEChem-03202506092D

 32 33  0     0  0  0  0  0  0999 V2000
    6.4103   -1.1885    0.0000 S   0  0  0  0  0  0  0  0  0  0  0  0
    2.8660    0.6162    0.0000 O   0  0  0  0  0  0  0  0  0  0  0  0
    7.9939   -2.1158    0.0000 O   0  0  0  0  0  0  0  0  0  0  0  0
    6.4103    0.4210    0.0000 N   0  0  0  0  0  0  0  0  0  0  0  0
    5.4641    0.1162    0.0000 C   0  0  0  0  0  0  0  0  0  0  0  0
    6.7210    1.3715    0.0000 C   0  0  0  0  0  0  0  0  0  0  0  0
    5.4641   -0.8838    0.0000 C   0  0  0  0  0  0  0  0  0  0  0  0
    6.9939   -0.3838    0.0000 C   0  0  0  0  0  0  0  0  0  0  0  0
    4.5981    0.6162    0.0000 C   0  0  0  0  0  0  0  0  0  0  0  0
    4.5981   -1.3838    0.0000 C   0  0  0  0  0  0  0  0  0  0  0  0
    3.7320    0.1162    0.0000 C   0  0  0  0  0  0  0  0  0  0  0  0
    6.0531    2.1158    0.0000 C   0  0  0  0  0  0  0  0  0  0  0  0
    3.7320   -0.8838    0.0000 C   0  0  0  0  0  0  0  0  0  0  0  0
    7.9939   -0.3838    0.0000 C   0  0  0  0  0  0  0  0  0  0  0  0
    8.4939   -1.2498    0.0000 C   0  0  0  0  0  0  0  0  0  0  0  0
    9.4939   -1.2498    0.0000 C   0  0  0  0  0  0  0  0  0  0  0  0
    2.0000    0.1162    0.0000 C   0  0  0  0  0  0  0  0  0  0  0  0
    7.2679    1.0795    0.0000 H   0  0  0  0  0  0  0  0  0  0  0  0
    7.1035    1.8594    0.0000 H   0  0  0  0  0  0  0  0  0  0  0  0
    4.5981    1.2362    0.0000 H   0  0  0  0  0  0  0  0  0  0  0  0
    4.5981   -2.0038    0.0000 H   0  0  0  0  0  0  0  0  0  0  0  0
    6.5146    2.5299    0.0000 H   0  0  0  0  0  0  0  0  0  0  0  0
    5.6391    2.5773    0.0000 H   0  0  0  0  0  0  0  0  0  0  0  0
    5.5917    1.7017    0.0000 H   0  0  0  0  0  0  0  0  0  0  0  0
    3.1951   -1.1938    0.0000 H   0  0  0  0  0  0  0  0  0  0  0  0
    8.3039    0.1532    0.0000 H   0  0  0  0  0  0  0  0  0  0  0  0
    9.4939   -1.8698    0.0000 H   0  0  0  0  0  0  0  0  0  0  0  0
   10.1139   -1.2498    0.0000 H   0  0  0  0  0  0  0  0  0  0  0  0
    9.4939   -0.6298    0.0000 H   0  0  0  0  0  0  0  0  0  0  0  0
    1.6900    0.6532    0.0000 H   0  0  0  0  0  0  0  0  0  0  0  0
    1.4631   -0.1938    0.0000 H   0  0  0  0  0  0  0  0  0  0  0  0
    2.3100   -0.4207    0.0000 H   0  0  0  0  0  0  0  0  0  0  0  0
  1  7  1  0  0  0  0
  1  8  1  0  0  0  0
  2 11  1  0  0  0  0
  2 17  1  0  0  0  0
  3 15  2  0  0  0  0
  4  5  1  0  0  0  0
  4  6  1  0  0  0  0
  4  8  1  0  0  0  0
  5  7  2  0  0  0  0
  5  9  1  0  0  0  0
  6 12  1  0  0  0  0
  6 18  1  0  0  0  0
  6 19  1  0  0  0  0
  7 10  1  0  0  0  0
  8 14  2  0  0  0  0
  9 11  2  0  0  0  0
  9 20  1  0  0  0  0
 10 13  2  0  0  0  0
 10 21  1  0  0  0  0
 11 13  1  0  0  0  0
 12 22  1  0  0  0  0
 12 23  1  0  0  0  0
 12 24  1  0  0  0  0
 13 25  1  0  0  0  0
 14 15  1  0  0  0  0
 14 26  1  0  0  0  0
 15 16  1  0  0  0  0
 16 27  1  0  0  0  0
 16 28  1  0  0  0  0
 16 29  1  0  0  0  0
 17 30  1  0  0  0  0
 17 31  1  0  0  0  0
 17 32  1  0  0  0  0
M  END
> <PUBCHEM_COMPOUND_CID>
1893668

> <PUBCHEM_COMPOUND_CANONICALIZED>
1

> <PUBCHEM_CACTVS_COMPLEXITY>
329

> <PUBCHEM_CACTVS_HBOND_ACCEPTOR>
4

> <PUBCHEM_CACTVS_HBOND_DONOR>
0

> <PUBCHEM_CACTVS_ROTATABLE_BOND>
3

> <PUBCHEM_CACTVS_SUBSKEYS>
AAADccByMABAAAAAAAAAAAAAAAAAAWAAAAAwAAAAAAAAAFgBAAAAHgQAAAAACAzB0AYyx4MABAiIAKRSQACCCABhKhAIiBwObMgMJiLksZuEMChmwBnI6EeQUAMAAIAAAgAAAQABAAAEAAACAAAAAAAAAA==

> <PUBCHEM_IUPAC_OPENEYE_NAME>
(1Z)-1-(3-ethyl-5-methoxy-1,3-benzothiazol-2-ylidene)propan-2-one

> <PUBCHEM_IUPAC_CAS_NAME>
(1Z)-1-(3-ethyl-5-methoxy-1,3-benzothiazol-2-ylidene)-2-propanone

> <PUBCHEM_IUPAC_NAME_MARKUP>
(1<I>Z</I>)-1-(3-ethyl-5-methoxy-1,3-benzothiazol-2-ylidene)propan-2-one

> <PUBCHEM_IUPAC_NAME>
(1Z)-1-(3-ethyl-5-methoxy-1,3-benzothiazol-2-ylidene)propan-2-one

> <PUBCHEM_IUPAC_SYSTEMATIC_NAME>
(1Z)-1-(3-ethyl-5-methoxy-1,3-benzothiazol-2-ylidene)propan-2-one

> <PUBCHEM_IUPAC_TRADITIONAL_NAME>
(1Z)-1-(3-ethyl-5-methoxy-1,3-benzothiazol-2-ylidene)acetone

> <PUBCHEM_IUPAC_INCHI>
InChI=1S/C13H15NO2S/c1-4-14-11-8-10(16-3)5-6-12(11)17-13(14)7-9(2)15/h5-8H,4H2,1-3H3/b13-7-

> <PUBCHEM_IUPAC_INCHIKEY>
BGVLELSCIHASRV-QPEQYQDCSA-N

> <PUBCHEM_XLOGP3_AA>
2.6

> <PUBCHEM_EXACT_MASS>
249.08234989

> <PUBCHEM_MOLECULAR_FORMULA>
C13H15NO2S

> <PUBCHEM_MOLECULAR_WEIGHT>
249.33

> <PUBCHEM_SMILES>
CCN\1C2=C(C=CC(=C2)OC)S/C1=C\C(=O)C

> <PUBCHEM_OPENEYE_CAN_SMILES>
CCN1C2=C(C=CC(=C2)OC)SC1=CC(=O)C

> <PUBCHEM_OPENEYE_ISO_SMILES>
CCN\1C2=C(C=CC(=C2)OC)S/C1=C\C(=O)C

> <PUBCHEM_CACTVS_TPSA>
54.8

> <PUBCHEM_MONOISOTOPIC_WEIGHT>
249.08234989

> <PUBCHEM_TOTAL_CHARGE>
0

> <PUBCHEM_HEAVY_ATOM_COUNT>
17

> <PUBCHEM_ATOM_DEF_STEREO_COUNT>
0

> <PUBCHEM_ATOM_UDEF_STEREO_COUNT>
0

> <PUBCHEM_BOND_DEF_STEREO_COUNT>
1

> <PUBCHEM_BOND_UDEF_STEREO_COUNT>
0

> <PUBCHEM_ISOTOPIC_ATOM_COUNT>
0

> <PUBCHEM_COMPONENT_COUNT>
1

> <PUBCHEM_CACTVS_TAUTO_COUNT>
-1

> <PUBCHEM_COORDINATE_TYPE>
1
5
255

> <PUBCHEM_BONDANNOTATIONS>
10  13  8
11  13  8
5  7  8
5  9  8
7  10  8
9  11  8

$$$$
