23642173
  -OEChem-03202502442D

 53 56  0     0  0  0  0  0  0999 V2000
    3.4385   -2.1510    0.0000 S   0  0  0  0  0  0  0  0  0  0  0  0
    4.1060    6.8927    0.0000 O   0  0  0  0  0  0  0  0  0  0  0  0
    4.1989    4.0723    0.0000 O   0  0  0  0  0  0  0  0  0  0  0  0
    4.5610    0.6271    0.0000 O   0  0  0  0  0  0  0  0  0  0  0  0
    4.2475   -6.7388    0.0000 N   0  0  0  0  0  0  0  0  0  0  0  0
    2.9787    1.3316    0.0000 N   0  0  0  0  0  0  0  0  0  0  0  0
    4.7475   -1.1999    0.0000 N   0  0  0  0  0  0  0  0  0  0  0  0
    3.1598   -0.3909    0.0000 N   0  0  0  0  0  0  0  0  0  0  0  0
    2.6166    4.7768    0.0000 N   0  0  0  0  0  0  0  0  0  0  0  0
    3.4385   -7.3266    0.0000 N   0  0  0  0  0  0  0  0  0  0  0  0
    4.0015    5.8982    0.0000 N   0  0  0  0  0  0  0  0  0  0  0  0
    4.2475   -3.7388    0.0000 C   0  0  0  0  0  0  0  0  0  0  0  0
    4.2475   -2.7388    0.0000 C   0  0  0  0  0  0  0  0  0  0  0  0
    5.0566   -2.1510    0.0000 C   0  0  0  0  0  0  0  0  0  0  0  0
    4.2475   -5.7388    0.0000 C   0  0  0  0  0  0  0  0  0  0  0  0
    3.3854    2.2452    0.0000 C   0  0  0  0  0  0  0  0  0  0  0  0
    5.1136   -4.2388    0.0000 C   0  0  0  0  0  0  0  0  0  0  0  0
    3.3815   -4.2388    0.0000 C   0  0  0  0  0  0  0  0  0  0  0  0
    2.7976    3.0542    0.0000 C   0  0  0  0  0  0  0  0  0  0  0  0
    5.1136   -5.2388    0.0000 C   0  0  0  0  0  0  0  0  0  0  0  0
    3.3815   -5.2388    0.0000 C   0  0  0  0  0  0  0  0  0  0  0  0
    3.7475   -1.1999    0.0000 C   0  0  0  0  0  0  0  0  0  0  0  0
    6.0076   -2.4600    0.0000 C   0  0  0  0  0  0  0  0  0  0  0  0
    3.2044    3.9678    0.0000 C   0  0  0  0  0  0  0  0  0  0  0  0
    3.5665    0.5226    0.0000 C   0  0  0  0  0  0  0  0  0  0  0  0
    5.0566   -7.3266    0.0000 C   0  0  0  0  0  0  0  0  0  0  0  0
    3.0233    5.6903    0.0000 C   0  0  0  0  0  0  0  0  0  0  0  0
    4.7475   -8.2776    0.0000 C   0  0  0  0  0  0  0  0  0  0  0  0
    3.7475   -8.2776    0.0000 C   0  0  0  0  0  0  0  0  0  0  0  0
    2.5233    6.5563    0.0000 C   0  0  0  0  0  0  0  0  0  0  0  0
    3.1925    7.2995    0.0000 C   0  0  0  0  0  0  0  0  0  0  0  0
    2.9846    8.2776    0.0000 C   0  0  0  0  0  0  0  0  0  0  0  0
    3.8994    1.8985    0.0000 H   0  0  0  0  0  0  0  0  0  0  0  0
    3.8161    2.6912    0.0000 H   0  0  0  0  0  0  0  0  0  0  0  0
    5.6505   -3.9288    0.0000 H   0  0  0  0  0  0  0  0  0  0  0  0
    2.8446   -3.9288    0.0000 H   0  0  0  0  0  0  0  0  0  0  0  0
    2.2836    3.4009    0.0000 H   0  0  0  0  0  0  0  0  0  0  0  0
    2.3670    2.6082    0.0000 H   0  0  0  0  0  0  0  0  0  0  0  0
    5.6505   -5.5488    0.0000 H   0  0  0  0  0  0  0  0  0  0  0  0
    2.8446   -5.5488    0.0000 H   0  0  0  0  0  0  0  0  0  0  0  0
    2.3621    1.2668    0.0000 H   0  0  0  0  0  0  0  0  0  0  0  0
    5.8160   -3.0497    0.0000 H   0  0  0  0  0  0  0  0  0  0  0  0
    6.5973   -2.6516    0.0000 H   0  0  0  0  0  0  0  0  0  0  0  0
    6.1992   -1.8704    0.0000 H   0  0  0  0  0  0  0  0  0  0  0  0
    2.5431   -0.4557    0.0000 H   0  0  0  0  0  0  0  0  0  0  0  0
    5.6462   -7.1350    0.0000 H   0  0  0  0  0  0  0  0  0  0  0  0
    2.0000    4.7120    0.0000 H   0  0  0  0  0  0  0  0  0  0  0  0
    5.1120   -8.7792    0.0000 H   0  0  0  0  0  0  0  0  0  0  0  0
    1.9067    6.6211    0.0000 H   0  0  0  0  0  0  0  0  0  0  0  0
    3.3831   -8.7792    0.0000 H   0  0  0  0  0  0  0  0  0  0  0  0
    3.5910    8.4065    0.0000 H   0  0  0  0  0  0  0  0  0  0  0  0
    2.8556    8.8841    0.0000 H   0  0  0  0  0  0  0  0  0  0  0  0
    2.3781    8.1487    0.0000 H   0  0  0  0  0  0  0  0  0  0  0  0
  1 13  1  0  0  0  0
  1 22  1  0  0  0  0
  2 11  1  0  0  0  0
  2 31  1  0  0  0  0
  3 24  2  0  0  0  0
  4 25  2  0  0  0  0
  5 10  1  0  0  0  0
  5 15  1  0  0  0  0
  5 26  1  0  0  0  0
  6 16  1  0  0  0  0
  6 25  1  0  0  0  0
  6 41  1  0  0  0  0
  7 14  1  0  0  0  0
  7 22  2  0  0  0  0
  8 22  1  0  0  0  0
  8 25  1  0  0  0  0
  8 45  1  0  0  0  0
  9 24  1  0  0  0  0
  9 27  1  0  0  0  0
  9 47  1  0  0  0  0
 10 29  2  0  0  0  0
 11 27  2  0  0  0  0
 12 13  1  0  0  0  0
 12 17  2  0  0  0  0
 12 18  1  0  0  0  0
 13 14  2  0  0  0  0
 14 23  1  0  0  0  0
 15 20  2  0  0  0  0
 15 21  1  0  0  0  0
 16 19  1  0  0  0  0
 16 33  1  0  0  0  0
 16 34  1  0  0  0  0
 17 20  1  0  0  0  0
 17 35  1  0  0  0  0
 18 21  2  0  0  0  0
 18 36  1  0  0  0  0
 19 24  1  0  0  0  0
 19 37  1  0  0  0  0
 19 38  1  0  0  0  0
 20 39  1  0  0  0  0
 21 40  1  0  0  0  0
 23 42  1  0  0  0  0
 23 43  1  0  0  0  0
 23 44  1  0  0  0  0
 26 28  2  0  0  0  0
 26 46  1  0  0  0  0
 27 30  1  0  0  0  0
 28 29  1  0  0  0  0
 28 48  1  0  0  0  0
 29 50  1  0  0  0  0
 30 31  2  0  0  0  0
 30 49  1  0  0  0  0
 31 32  1  0  0  0  0
 32 51  1  0  0  0  0
 32 52  1  0  0  0  0
 32 53  1  0  0  0  0
M  END
> <PUBCHEM_COMPOUND_CID>
23642173

> <PUBCHEM_COMPOUND_CANONICALIZED>
1

> <PUBCHEM_CACTVS_COMPLEXITY>
649

> <PUBCHEM_CACTVS_HBOND_ACCEPTOR>
7

> <PUBCHEM_CACTVS_HBOND_DONOR>
3

> <PUBCHEM_CACTVS_ROTATABLE_BOND>
7

> <PUBCHEM_CACTVS_SUBSKEYS>
AAADceB7sABAAAAAAAAAAAAAAAAAAWLFgAAwAAAAAAAAAAAB/AAAHgQcAAAADAzB3gQ/9ZLYEAivA7d3dgCS9Kl1qjk5mLU+bNqIJOrg2dGEpIhqnwrIyGcQgIAOCAAAAAAAAAAQAAAAAAAAAAAAAAAAAA==

> <PUBCHEM_IUPAC_OPENEYE_NAME>
N-(5-methylisoxazol-3-yl)-3-[[4-methyl-5-(4-pyrazol-1-ylphenyl)thiazol-2-yl]carbamoylamino]propanamide

> <PUBCHEM_IUPAC_CAS_NAME>
N-(5-methyl-3-isoxazolyl)-3-[[[[4-methyl-5-[4-(1-pyrazolyl)phenyl]-2-thiazolyl]amino]-oxomethyl]amino]propanamide

> <PUBCHEM_IUPAC_NAME_MARKUP>
<I>N</I>-(5-methyl-1,2-oxazol-3-yl)-3-[[4-methyl-5-(4-pyrazol-1-ylphenyl)-1,3-thiazol-2-yl]carbamoylamino]propanamide

> <PUBCHEM_IUPAC_NAME>
N-(5-methyl-1,2-oxazol-3-yl)-3-[[4-methyl-5-(4-pyrazol-1-ylphenyl)-1,3-thiazol-2-yl]carbamoylamino]propanamide

> <PUBCHEM_IUPAC_SYSTEMATIC_NAME>
N-(5-methyl-1,2-oxazol-3-yl)-3-[[4-methyl-5-(4-pyrazol-1-ylphenyl)-1,3-thiazol-2-yl]carbamoylamino]propanamide

> <PUBCHEM_IUPAC_TRADITIONAL_NAME>
N-(5-methylisoxazol-3-yl)-3-[[4-methyl-5-(4-pyrazol-1-ylphenyl)thiazol-2-yl]carbamoylamino]propionamide

> <PUBCHEM_IUPAC_INCHI>
InChI=1S/C21H21N7O3S/c1-13-12-17(27-31-13)25-18(29)8-10-22-20(30)26-21-24-14(2)19(32-21)15-4-6-16(7-5-15)28-11-3-9-23-28/h3-7,9,11-12H,8,10H2,1-2H3,(H,25,27,29)(H2,22,24,26,30)

> <PUBCHEM_IUPAC_INCHIKEY>
XBNSDTLFWKORGH-UHFFFAOYSA-N

> <PUBCHEM_XLOGP3_AA>
2.3

> <PUBCHEM_EXACT_MASS>
451.14265873

> <PUBCHEM_MOLECULAR_FORMULA>
C21H21N7O3S

> <PUBCHEM_MOLECULAR_WEIGHT>
451.5

> <PUBCHEM_SMILES>
CC1=CC(=NO1)NC(=O)CCNC(=O)NC2=NC(=C(S2)C3=CC=C(C=C3)N4C=CC=N4)C

> <PUBCHEM_OPENEYE_CAN_SMILES>
CC1=CC(=NO1)NC(=O)CCNC(=O)NC2=NC(=C(S2)C3=CC=C(C=C3)N4C=CC=N4)C

> <PUBCHEM_OPENEYE_ISO_SMILES>
CC1=CC(=NO1)NC(=O)CCNC(=O)NC2=NC(=C(S2)C3=CC=C(C=C3)N4C=CC=N4)C

> <PUBCHEM_CACTVS_TPSA>
155

> <PUBCHEM_MONOISOTOPIC_WEIGHT>
451.14265873

> <PUBCHEM_TOTAL_CHARGE>
0

> <PUBCHEM_HEAVY_ATOM_COUNT>
32

> <PUBCHEM_ATOM_DEF_STEREO_COUNT>
0

> <PUBCHEM_ATOM_UDEF_STEREO_COUNT>
0

> <PUBCHEM_BOND_DEF_STEREO_COUNT>
0

> <PUBCHEM_BOND_UDEF_STEREO_COUNT>
0

> <PUBCHEM_ISOTOPIC_ATOM_COUNT>
0

> <PUBCHEM_COMPONENT_COUNT>
1

> <PUBCHEM_CACTVS_TAUTO_COUNT>
-1

> <PUBCHEM_COORDINATE_TYPE>
1
5
255

> <PUBCHEM_BONDANNOTATIONS>
1  13  8
1  22  8
10  29  8
11  27  8
12  17  8
12  18  8
13  14  8
15  20  8
15  21  8
17  20  8
18  21  8
2  11  8
2  31  8
26  28  8
27  30  8
28  29  8
30  31  8
5  10  8
5  26  8
7  14  8
7  22  8

$$$$
