10141037
  -OEChem-03202505392D

 61 66  0     0  0  0  0  0  0999 V2000
   10.2608   -0.8923    0.0000 O   0  0  0  0  0  0  0  0  0  0  0  0
    7.3756    2.4613    0.0000 O   0  0  0  0  0  0  0  0  0  0  0  0
    6.0889   -2.7506    0.0000 O   0  0  0  0  0  0  0  0  0  0  0  0
    3.1531   -1.3407    0.0000 O   0  0  0  0  0  0  0  0  0  0  0  0
    9.4004    1.1464    0.0000 O   0  0  0  0  0  0  0  0  0  0  0  0
    8.1237    0.1870    0.0000 N   0  0  0  0  0  0  0  0  0  0  0  0
    5.0274    1.9837    0.0000 N   0  0  0  0  0  0  0  0  0  0  0  0
    4.7381   -2.1427    0.0000 N   0  0  0  0  0  0  0  0  0  0  0  0
    8.6662   -1.5603    0.0000 N   0  0  0  0  0  0  0  0  0  0  0  0
    3.3424    2.7685    0.0000 N   0  0  0  0  0  0  0  0  0  0  0  0
    6.4295   -0.1732    0.0000 C   0  0  0  0  0  0  0  0  0  0  0  0
    4.5274    0.4449    0.0000 C   0  0  0  0  0  0  0  0  0  0  0  0
    5.6863   -0.8423    0.0000 C   0  0  0  0  0  0  0  0  0  0  0  0
    4.7353   -0.5333    0.0000 C   0  0  0  0  0  0  0  0  0  0  0  0
    6.9813   -1.0056    0.0000 C   0  0  0  0  0  0  0  0  0  0  0  0
    3.7183    1.0327    0.0000 C   0  0  0  0  0  0  0  0  0  0  0  0
    7.9582   -0.7980    0.0000 C   0  0  0  0  0  0  0  0  0  0  0  0
    4.0274    1.9837    0.0000 C   0  0  0  0  0  0  0  0  0  0  0  0
    7.3805   -0.4822    0.0000 C   0  0  0  0  0  0  0  0  0  0  0  0
    5.3364    1.0327    0.0000 C   0  0  0  0  0  0  0  0  0  0  0  0
    9.0747   -0.1221    0.0000 C   0  0  0  0  0  0  0  0  0  0  0  0
    5.7705    2.6529    0.0000 C   0  0  0  0  0  0  0  0  0  0  0  0
    5.6838   -1.8364    0.0000 C   0  0  0  0  0  0  0  0  0  0  0  0
    4.1531   -1.3390    0.0000 C   0  0  0  0  0  0  0  0  0  0  0  0
    6.6446   -1.9900    0.0000 C   0  0  0  0  0  0  0  0  0  0  0  0
    2.7029    0.8004    0.0000 C   0  0  0  0  0  0  0  0  0  0  0  0
    9.2826   -1.1002    0.0000 C   0  0  0  0  0  0  0  0  0  0  0  0
    6.4846    2.0073    0.0000 C   0  0  0  0  0  0  0  0  0  0  0  0
    7.3347   -2.7685    0.0000 C   0  0  0  0  0  0  0  0  0  0  0  0
    2.0000    1.5691    0.0000 C   0  0  0  0  0  0  0  0  0  0  0  0
    8.3523   -2.5522    0.0000 C   0  0  0  0  0  0  0  0  0  0  0  0
    2.3219    2.5598    0.0000 C   0  0  0  0  0  0  0  0  0  0  0  0
   10.8054   -0.0536    0.0000 C   0  0  0  0  0  0  0  0  0  0  0  0
    8.2143    1.9166    0.0000 C   0  0  0  0  0  0  0  0  0  0  0  0
   10.3514    0.8374    0.0000 C   0  0  0  0  0  0  0  0  0  0  0  0
    9.1925    2.1246    0.0000 C   0  0  0  0  0  0  0  0  0  0  0  0
    7.5094   -1.0886    0.0000 H   0  0  0  0  0  0  0  0  0  0  0  0
    5.9260    0.8411    0.0000 H   0  0  0  0  0  0  0  0  0  0  0  0
    9.6944   -0.1004    0.0000 H   0  0  0  0  0  0  0  0  0  0  0  0
    9.1610    0.4919    0.0000 H   0  0  0  0  0  0  0  0  0  0  0  0
    6.2018    3.0983    0.0000 H   0  0  0  0  0  0  0  0  0  0  0  0
    5.3401    3.0991    0.0000 H   0  0  0  0  0  0  0  0  0  0  0  0
    4.5465   -2.7324    0.0000 H   0  0  0  0  0  0  0  0  0  0  0  0
    6.0367   -2.1119    0.0000 H   0  0  0  0  0  0  0  0  0  0  0  0
    2.5182    0.2086    0.0000 H   0  0  0  0  0  0  0  0  0  0  0  0
    8.6762   -1.2291    0.0000 H   0  0  0  0  0  0  0  0  0  0  0  0
    9.4116   -1.7066    0.0000 H   0  0  0  0  0  0  0  0  0  0  0  0
    6.0162    1.6012    0.0000 H   0  0  0  0  0  0  0  0  0  0  0  0
    6.8310    1.4931    0.0000 H   0  0  0  0  0  0  0  0  0  0  0  0
    7.1408   -3.3574    0.0000 H   0  0  0  0  0  0  0  0  0  0  0  0
    1.3940    1.4379    0.0000 H   0  0  0  0  0  0  0  0  0  0  0  0
    8.7689   -3.0113    0.0000 H   0  0  0  0  0  0  0  0  0  0  0  0
    1.9088    3.0221    0.0000 H   0  0  0  0  0  0  0  0  0  0  0  0
   11.2589   -0.4765    0.0000 H   0  0  0  0  0  0  0  0  0  0  0  0
   11.3006    0.3195    0.0000 H   0  0  0  0  0  0  0  0  0  0  0  0
    7.7536    1.5018    0.0000 H   0  0  0  0  0  0  0  0  0  0  0  0
    8.4958    1.3642    0.0000 H   0  0  0  0  0  0  0  0  0  0  0  0
   10.9579    0.9663    0.0000 H   0  0  0  0  0  0  0  0  0  0  0  0
   10.3839    1.4565    0.0000 H   0  0  0  0  0  0  0  0  0  0  0  0
    9.7989    2.2535    0.0000 H   0  0  0  0  0  0  0  0  0  0  0  0
    9.0636    2.7310    0.0000 H   0  0  0  0  0  0  0  0  0  0  0  0
  1 27  1  0  0  0  0
  1 33  1  0  0  0  0
  2 28  1  0  0  0  0
  2 34  1  0  0  0  0
  3 23  2  0  0  0  0
  4 24  2  0  0  0  0
  5 35  1  0  0  0  0
  5 36  1  0  0  0  0
  6 17  1  0  0  0  0
  6 19  1  0  0  0  0
  6 21  1  0  0  0  0
  7 18  1  0  0  0  0
  7 20  1  0  0  0  0
  7 22  1  0  0  0  0
  8 23  1  0  0  0  0
  8 24  1  0  0  0  0
  8 43  1  0  0  0  0
  9 17  1  0  0  0  0
  9 31  2  0  0  0  0
 10 18  1  0  0  0  0
 10 32  2  0  0  0  0
 11 13  1  0  0  0  0
 11 15  1  0  0  0  0
 11 19  2  0  0  0  0
 12 14  1  0  0  0  0
 12 16  1  0  0  0  0
 12 20  2  0  0  0  0
 13 14  2  0  0  0  0
 13 23  1  0  0  0  0
 14 24  1  0  0  0  0
 15 17  2  0  0  0  0
 15 25  1  0  0  0  0
 16 18  2  0  0  0  0
 16 26  1  0  0  0  0
 19 37  1  0  0  0  0
 20 38  1  0  0  0  0
 21 27  1  0  0  0  0
 21 39  1  0  0  0  0
 21 40  1  0  0  0  0
 22 28  1  0  0  0  0
 22 41  1  0  0  0  0
 22 42  1  0  0  0  0
 25 29  2  0  0  0  0
 25 44  1  0  0  0  0
 26 30  2  0  0  0  0
 26 45  1  0  0  0  0
 27 46  1  0  0  0  0
 27 47  1  0  0  0  0
 28 48  1  0  0  0  0
 28 49  1  0  0  0  0
 29 31  1  0  0  0  0
 29 50  1  0  0  0  0
 30 32  1  0  0  0  0
 30 51  1  0  0  0  0
 31 52  1  0  0  0  0
 32 53  1  0  0  0  0
 33 35  1  0  0  0  0
 33 54  1  0  0  0  0
 33 55  1  0  0  0  0
 34 36  1  0  0  0  0
 34 56  1  0  0  0  0
 34 57  1  0  0  0  0
 35 58  1  0  0  0  0
 35 59  1  0  0  0  0
 36 60  1  0  0  0  0
 36 61  1  0  0  0  0
M  END
> <PUBCHEM_COMPOUND_CID>
10141037

> <PUBCHEM_COMPOUND_CANONICALIZED>
1

> <PUBCHEM_CACTVS_COMPLEXITY>
802

> <PUBCHEM_CACTVS_HBOND_ACCEPTOR>
7

> <PUBCHEM_CACTVS_HBOND_DONOR>
1

> <PUBCHEM_CACTVS_ROTATABLE_BOND>
0

> <PUBCHEM_CACTVS_SUBSKEYS>
AAADceB7uAAAAAAAAAAAAAAAAAAAAWLEAAAsWAAAAAAAAFgB/gAAHgAQAAAADADhmwY9sN/MFACoAjN3dACCgCkxAqAJ2CE4ZNiLKPLAnZGHIAhohCLayScciQCOgAAAAAAAAAAAAAAAAAAAAAAAAAAAAA==

> <PUBCHEM_IUPAC_OPENEYE_NAME>
17,20,23-trioxa-4,12,14,26,28-pentazahexacyclo[24.6.1.17,14.02,6.08,13.027,32]tetratriaconta-1(33),2(6),7(34),8(13),9,11,27(32),28,30-nonaene-3,5-dione

> <PUBCHEM_IUPAC_CAS_NAME>
17,20,23-trioxa-4,12,14,26,28-pentazahexacyclo[24.6.1.17,14.02,6.08,13.027,32]tetratriaconta-1(33),2(6),7(34),8(13),9,11,27(32),28,30-nonaene-3,5-dione

> <PUBCHEM_IUPAC_NAME_MARKUP>
17,20,23-trioxa-4,12,14,26,28-pentazahexacyclo[24.6.1.1<SUP>7,14</SUP>.0<SUP>2,6</SUP>.0<SUP>8,13</SUP>.0<SUP>27,32</SUP>]tetratriaconta-1(33),2(6),7(34),8(13),9,11,27(32),28,30-nonaene-3,5-dione

> <PUBCHEM_IUPAC_NAME>
17,20,23-trioxa-4,12,14,26,28-pentazahexacyclo[24.6.1.17,14.02,6.08,13.027,32]tetratriaconta-1(33),2(6),7(34),8(13),9,11,27(32),28,30-nonaene-3,5-dione

> <PUBCHEM_IUPAC_SYSTEMATIC_NAME>
17,20,23-trioxa-4,12,14,26,28-pentazahexacyclo[24.6.1.17,14.02,6.08,13.027,32]tetratriaconta-1(33),2(6),7(34),8(13),9,11,27(32),28,30-nonaene-3,5-dione

> <PUBCHEM_IUPAC_TRADITIONAL_NAME>
17,20,23-trioxa-4,12,14,26,28-pentazahexacyclo[24.6.1.17,14.02,6.08,13.027,32]tetratriaconta-1(33),2(6),7(34),8(13),9,11,27(32),28,30-nonaene-3,5-quinone

> <PUBCHEM_IUPAC_INCHI>
InChI=1S/C26H25N5O5/c32-25-21-19-15-30(23-17(19)3-1-5-27-23)7-9-34-11-13-36-14-12-35-10-8-31-16-20(22(21)26(33)29-25)18-4-2-6-28-24(18)31/h1-6,15-16H,7-14H2,(H,29,32,33)

> <PUBCHEM_IUPAC_INCHIKEY>
POFRSIZMPZFXPB-UHFFFAOYSA-N

> <PUBCHEM_XLOGP3_AA>
0.5

> <PUBCHEM_EXACT_MASS>
487.18556891

> <PUBCHEM_MOLECULAR_FORMULA>
C26H25N5O5

> <PUBCHEM_MOLECULAR_WEIGHT>
487.5

> <PUBCHEM_SMILES>
C1COCCOCCOCCN2C=C(C3=C2N=CC=C3)C4=C(C5=CN1C6=C5C=CC=N6)C(=O)NC4=O

> <PUBCHEM_OPENEYE_CAN_SMILES>
C1COCCOCCOCCN2C=C(C3=C2N=CC=C3)C4=C(C5=CN1C6=C5C=CC=N6)C(=O)NC4=O

> <PUBCHEM_OPENEYE_ISO_SMILES>
C1COCCOCCOCCN2C=C(C3=C2N=CC=C3)C4=C(C5=CN1C6=C5C=CC=N6)C(=O)NC4=O

> <PUBCHEM_CACTVS_TPSA>
110

> <PUBCHEM_MONOISOTOPIC_WEIGHT>
487.18556891

> <PUBCHEM_TOTAL_CHARGE>
0

> <PUBCHEM_HEAVY_ATOM_COUNT>
36

> <PUBCHEM_ATOM_DEF_STEREO_COUNT>
0

> <PUBCHEM_ATOM_UDEF_STEREO_COUNT>
0

> <PUBCHEM_BOND_DEF_STEREO_COUNT>
0

> <PUBCHEM_BOND_UDEF_STEREO_COUNT>
0

> <PUBCHEM_ISOTOPIC_ATOM_COUNT>
0

> <PUBCHEM_COMPONENT_COUNT>
1

> <PUBCHEM_CACTVS_TAUTO_COUNT>
-1

> <PUBCHEM_COORDINATE_TYPE>
1
5
255

> <PUBCHEM_BONDANNOTATIONS>
10  18  8
10  32  8
11  15  8
11  19  8
12  16  8
12  20  8
15  17  8
15  25  8
16  18  8
16  26  8
25  29  8
26  30  8
29  31  8
30  32  8
6  17  8
6  19  8
7  18  8
7  20  8
9  17  8
9  31  8

$$$$
