42639664
  -OEChem-03202507002D

 71 76  0     1  0  0  0  0  0999 V2000
    2.3079   -2.3932    0.0000 O   0  0  0  0  0  0  0  0  0  0  0  0
    2.4438   -3.9420    0.0000 O   0  0  0  0  0  0  0  0  0  0  0  0
    4.2256   -0.8833    0.0000 O   0  0  0  0  0  0  0  0  0  0  0  0
    4.2256   -4.9524    0.0000 O   0  0  0  0  0  0  0  0  0  0  0  0
    5.3312   -1.1518    0.0000 O   0  0  0  0  0  0  0  0  0  0  0  0
    5.9740   -4.9179    0.0000 O   0  0  0  0  0  0  0  0  0  0  0  0
    7.7224   -4.9524    0.0000 O   0  0  0  0  0  0  0  0  0  0  0  0
    9.5041   -1.8937    0.0000 O   0  0  0  0  0  0  0  0  0  0  0  0
    5.8308   -0.1995    0.0000 O   0  0  0  0  0  0  0  0  0  0  0  0
    9.4918   -0.8318    0.0000 O   0  0  0  0  0  0  0  0  0  0  0  0
   10.3242    0.7061    0.0000 O   0  0  0  0  0  0  0  0  0  0  0  0
    6.8448    2.6793    0.0000 O   0  0  0  0  0  0  0  0  0  0  0  0
   11.2168    4.2582    0.0000 O   0  0  0  0  0  0  0  0  0  0  0  0
    3.3079   -2.3970    0.0000 C   0  0  2  0  0  0  0  0  0  0  0  0
    3.3079   -3.4387    0.0000 C   0  0  1  0  0  0  0  0  0  0  0  0
    4.2140   -1.8832    0.0000 C   0  0  1  0  0  0  0  0  0  0  0  0
    4.2140   -3.9525    0.0000 C   0  0  2  0  0  0  0  0  0  0  0  0
    5.1079   -2.4179    0.0000 C   0  0  0  0  0  0  0  0  0  0  0  0
    5.1079   -3.4179    0.0000 C   0  0  0  0  0  0  0  0  0  0  0  0
    2.8113   -1.5291    0.0000 C   0  0  0  0  0  0  0  0  0  0  0  0
    5.9740   -1.9179    0.0000 C   0  0  0  0  0  0  0  0  0  0  0  0
    5.9740   -3.9179    0.0000 C   0  0  0  0  0  0  0  0  0  0  0  0
    6.8400   -2.4179    0.0000 C   0  0  0  0  0  0  0  0  0  0  0  0
    6.8400   -3.4179    0.0000 C   0  0  0  0  0  0  0  0  0  0  0  0
    7.7339   -1.8832    0.0000 C   0  0  0  0  0  0  0  0  0  0  0  0
    7.7339   -3.9525    0.0000 C   0  0  0  0  0  0  0  0  0  0  0  0
    8.6400   -2.3970    0.0000 C   0  0  0  0  0  0  0  0  0  0  0  0
    7.7224   -0.8833    0.0000 C   0  0  0  0  0  0  0  0  0  0  0  0
    8.6400   -3.4387    0.0000 C   0  0  0  0  0  0  0  0  0  0  0  0
    8.6163   -0.3486    0.0000 C   0  0  0  0  0  0  0  0  0  0  0  0
    6.8163   -0.3694    0.0000 C   0  0  0  0  0  0  0  0  0  0  0  0
    8.5922    0.6928    0.0000 C   0  0  0  0  0  0  0  0  0  0  0  0
    7.7224    1.1861    0.0000 C   0  0  0  0  0  0  0  0  0  0  0  0
    6.8163    0.6722    0.0000 C   0  0  0  0  0  0  0  0  0  0  0  0
    9.4544    1.1994    0.0000 C   0  0  0  0  0  0  0  0  0  0  0  0
    7.7146    2.1860    0.0000 C   0  0  0  0  0  0  0  0  0  0  0  0
    9.4466    2.1994    0.0000 C   0  0  0  0  0  0  0  0  0  0  0  0
    8.5768    2.6927    0.0000 C   0  0  0  0  0  0  0  0  0  0  0  0
   10.3720   -2.3904    0.0000 C   0  0  0  0  0  0  0  0  0  0  0  0
    8.5527    3.7340    0.0000 C   0  0  0  0  0  0  0  0  0  0  0  0
   10.3527    2.7132    0.0000 C   0  0  0  0  0  0  0  0  0  0  0  0
    9.4466    4.2687    0.0000 C   0  0  0  0  0  0  0  0  0  0  0  0
   10.3527    3.7549    0.0000 C   0  0  0  0  0  0  0  0  0  0  0  0
    5.4852    0.7389    0.0000 C   0  0  0  0  0  0  0  0  0  0  0  0
    9.4351    5.2686    0.0000 C   0  0  0  0  0  0  0  0  0  0  0  0
    3.3115   -4.0587    0.0000 H   0  0  0  0  0  0  0  0  0  0  0  0
    3.6801   -1.5680    0.0000 H   0  0  0  0  0  0  0  0  0  0  0  0
    3.6801   -4.2677    0.0000 H   0  0  0  0  0  0  0  0  0  0  0  0
    3.3494   -1.2212    0.0000 H   0  0  0  0  0  0  0  0  0  0  0  0
    2.5033   -0.9910    0.0000 H   0  0  0  0  0  0  0  0  0  0  0  0
    2.2731   -1.8370    0.0000 H   0  0  0  0  0  0  0  0  0  0  0  0
    2.0000   -1.8551    0.0000 H   0  0  0  0  0  0  0  0  0  0  0  0
    2.4462   -4.5620    0.0000 H   0  0  0  0  0  0  0  0  0  0  0  0
    3.6922   -0.5671    0.0000 H   0  0  0  0  0  0  0  0  0  0  0  0
    3.6922   -5.2686    0.0000 H   0  0  0  0  0  0  0  0  0  0  0  0
    9.1757   -3.7507    0.0000 H   0  0  0  0  0  0  0  0  0  0  0  0
    6.2806    0.9843    0.0000 H   0  0  0  0  0  0  0  0  0  0  0  0
    8.2557   -5.2686    0.0000 H   0  0  0  0  0  0  0  0  0  0  0  0
   10.0227   -0.5115    0.0000 H   0  0  0  0  0  0  0  0  0  0  0  0
   10.0641   -2.9285    0.0000 H   0  0  0  0  0  0  0  0  0  0  0  0
   10.9102   -2.6983    0.0000 H   0  0  0  0  0  0  0  0  0  0  0  0
   10.6800   -1.8522    0.0000 H   0  0  0  0  0  0  0  0  0  0  0  0
    8.0099    4.0336    0.0000 H   0  0  0  0  0  0  0  0  0  0  0  0
   10.8885    2.4012    0.0000 H   0  0  0  0  0  0  0  0  0  0  0  0
    6.0670    0.9531    0.0000 H   0  0  0  0  0  0  0  0  0  0  0  0
    5.2710    1.3207    0.0000 H   0  0  0  0  0  0  0  0  0  0  0  0
    4.9034    0.5246    0.0000 H   0  0  0  0  0  0  0  0  0  0  0  0
   10.0550    5.2758    0.0000 H   0  0  0  0  0  0  0  0  0  0  0  0
    9.4279    5.8886    0.0000 H   0  0  0  0  0  0  0  0  0  0  0  0
    8.8151    5.2615    0.0000 H   0  0  0  0  0  0  0  0  0  0  0  0
   11.7549    3.9503    0.0000 H   0  0  0  0  0  0  0  0  0  0  0  0
 14  1  1  1  0  0  0
  1 52  1  0  0  0  0
 15  2  1  1  0  0  0
  2 53  1  0  0  0  0
 16  3  1  6  0  0  0
  3 54  1  0  0  0  0
 17  4  1  6  0  0  0
  4 55  1  0  0  0  0
  5 21  2  0  0  0  0
  6 22  2  0  0  0  0
  7 26  1  0  0  0  0
  7 58  1  0  0  0  0
  8 27  1  0  0  0  0
  8 39  1  0  0  0  0
  9 31  1  0  0  0  0
  9 44  1  0  0  0  0
 10 30  1  0  0  0  0
 10 59  1  0  0  0  0
 11 35  2  0  0  0  0
 12 36  2  0  0  0  0
 13 43  1  0  0  0  0
 13 71  1  0  0  0  0
 14 15  1  0  0  0  0
 14 16  1  0  0  0  0
 14 20  1  0  0  0  0
 15 17  1  0  0  0  0
 15 46  1  0  0  0  0
 16 18  1  0  0  0  0
 16 47  1  0  0  0  0
 17 19  1  0  0  0  0
 17 48  1  0  0  0  0
 18 19  2  0  0  0  0
 18 21  1  0  0  0  0
 19 22  1  0  0  0  0
 20 49  1  0  0  0  0
 20 50  1  0  0  0  0
 20 51  1  0  0  0  0
 21 23  1  0  0  0  0
 22 24  1  0  0  0  0
 23 24  2  0  0  0  0
 23 25  1  0  0  0  0
 24 26  1  0  0  0  0
 25 27  2  0  0  0  0
 25 28  1  0  0  0  0
 26 29  2  0  0  0  0
 27 29  1  0  0  0  0
 28 30  1  0  0  0  0
 28 31  2  0  0  0  0
 29 56  1  0  0  0  0
 30 32  2  0  0  0  0
 31 34  1  0  0  0  0
 32 33  1  0  0  0  0
 32 35  1  0  0  0  0
 33 34  2  0  0  0  0
 33 36  1  0  0  0  0
 34 57  1  0  0  0  0
 35 37  1  0  0  0  0
 36 38  1  0  0  0  0
 37 38  2  0  0  0  0
 37 41  1  0  0  0  0
 38 40  1  0  0  0  0
 39 60  1  0  0  0  0
 39 61  1  0  0  0  0
 39 62  1  0  0  0  0
 40 42  2  0  0  0  0
 40 63  1  0  0  0  0
 41 43  2  0  0  0  0
 41 64  1  0  0  0  0
 42 43  1  0  0  0  0
 42 45  1  0  0  0  0
 44 65  1  0  0  0  0
 44 66  1  0  0  0  0
 44 67  1  0  0  0  0
 45 68  1  0  0  0  0
 45 69  1  0  0  0  0
 45 70  1  0  0  0  0
M  END
> <PUBCHEM_COMPOUND_CID>
42639664

> <PUBCHEM_COMPOUND_CANONICALIZED>
1

> <PUBCHEM_CACTVS_COMPLEXITY>
1310

> <PUBCHEM_CACTVS_HBOND_ACCEPTOR>
13

> <PUBCHEM_CACTVS_HBOND_DONOR>
7

> <PUBCHEM_CACTVS_ROTATABLE_BOND>
3

> <PUBCHEM_CACTVS_SUBSKEYS>
AAADceB8PAAAAAAAAAAAAAAAAAAAAAAAAAAwYMGCAAAAAADBUAAAGgAACAAADFSgmAIyBoAABgCIAqBSAAACCAAkIAAAiAEGCMgNNzaGNRqAcWAl4BUJuYfL7PzO4AADCAAYAADAAAYQADAAAAAAAAAAAA==

> <PUBCHEM_IUPAC_OPENEYE_NAME>
1,7-dihydroxy-3-methoxy-6-methyl-2-[(5S,6R,7S,8R)-4,5,6,7,8-pentahydroxy-2-methoxy-7-methyl-9,10-dioxo-6,8-dihydro-5H-anthracen-1-yl]anthracene-9,10-dione

> <PUBCHEM_IUPAC_CAS_NAME>
1,7-dihydroxy-3-methoxy-6-methyl-2-[(5S,6R,7S,8R)-4,5,6,7,8-pentahydroxy-2-methoxy-7-methyl-9,10-dioxo-6,8-dihydro-5H-anthracen-1-yl]anthracene-9,10-dione

> <PUBCHEM_IUPAC_NAME_MARKUP>
1,7-dihydroxy-3-methoxy-6-methyl-2-[(5<I>S</I>,6<I>R</I>,7<I>S</I>,8<I>R</I>)-4,5,6,7,8-pentahydroxy-2-methoxy-7-methyl-9,10-dioxo-6,8-dihydro-5<I>H</I>-anthracen-1-yl]anthracene-9,10-dione

> <PUBCHEM_IUPAC_NAME>
1,7-dihydroxy-3-methoxy-6-methyl-2-[(5S,6R,7S,8R)-4,5,6,7,8-pentahydroxy-2-methoxy-7-methyl-9,10-dioxo-6,8-dihydro-5H-anthracen-1-yl]anthracene-9,10-dione

> <PUBCHEM_IUPAC_SYSTEMATIC_NAME>
3-methoxy-2-[(5S,6R,7S,8R)-2-methoxy-7-methyl-4,5,6,7,8-pentakis(oxidanyl)-9,10-bis(oxidanylidene)-6,8-dihydro-5H-anthracen-1-yl]-6-methyl-1,7-bis(oxidanyl)anthracene-9,10-dione

> <PUBCHEM_IUPAC_TRADITIONAL_NAME>
1,7-dihydroxy-3-methoxy-6-methyl-2-[(5S,6R,7S,8R)-4,5,6,7,8-pentahydroxy-9,10-diketo-2-methoxy-7-methyl-6,8-dihydro-5H-anthracen-1-yl]-9,10-anthraquinone

> <PUBCHEM_IUPAC_INCHI>
InChI=1S/C32H26O13/c1-9-5-10-11(6-13(9)33)25(36)17-12(24(10)35)7-15(44-3)20(26(17)37)19-16(45-4)8-14(34)18-21(19)28(39)23-22(27(18)38)29(40)31(42)32(2,43)30(23)41/h5-8,29-31,33-34,37,40-43H,1-4H3/t29-,30+,31+,32-/m0/s1

> <PUBCHEM_IUPAC_INCHIKEY>
WNKYPOGUIDZODB-BVEPWEIPSA-N

> <PUBCHEM_XLOGP3_AA>
1.4

> <PUBCHEM_EXACT_MASS>
618.13734088

> <PUBCHEM_MOLECULAR_FORMULA>
C32H26O13

> <PUBCHEM_MOLECULAR_WEIGHT>
618.5

> <PUBCHEM_SMILES>
CC1=CC2=C(C=C1O)C(=O)C3=C(C(=C(C=C3C2=O)OC)C4=C(C=C(C5=C4C(=O)C6=C(C5=O)[C@@H]([C@H]([C@@]([C@@H]6O)(C)O)O)O)O)OC)O

> <PUBCHEM_OPENEYE_CAN_SMILES>
CC1=CC2=C(C=C1O)C(=O)C3=C(C(=C(C=C3C2=O)OC)C4=C(C=C(C5=C4C(=O)C6=C(C5=O)C(C(C(C6O)(C)O)O)O)O)OC)O

> <PUBCHEM_OPENEYE_ISO_SMILES>
CC1=CC2=C(C=C1O)C(=O)C3=C(C(=C(C=C3C2=O)OC)C4=C(C=C(C5=C4C(=O)C6=C(C5=O)[C@@H]([C@H]([C@@]([C@@H]6O)(C)O)O)O)O)OC)O

> <PUBCHEM_CACTVS_TPSA>
228

> <PUBCHEM_MONOISOTOPIC_WEIGHT>
618.13734088

> <PUBCHEM_TOTAL_CHARGE>
0

> <PUBCHEM_HEAVY_ATOM_COUNT>
45

> <PUBCHEM_ATOM_DEF_STEREO_COUNT>
4

> <PUBCHEM_ATOM_UDEF_STEREO_COUNT>
0

> <PUBCHEM_BOND_DEF_STEREO_COUNT>
0

> <PUBCHEM_BOND_UDEF_STEREO_COUNT>
0

> <PUBCHEM_ISOTOPIC_ATOM_COUNT>
0

> <PUBCHEM_COMPONENT_COUNT>
1

> <PUBCHEM_CACTVS_TAUTO_COUNT>
-1

> <PUBCHEM_COORDINATE_TYPE>
1
5
255

> <PUBCHEM_BONDANNOTATIONS>
14  1  5
15  2  5
23  24  8
23  25  8
24  26  8
25  27  8
26  29  8
27  29  8
28  30  8
28  31  8
16  3  6
30  32  8
31  34  8
32  33  8
33  34  8
37  38  8
37  41  8
38  40  8
17  4  6
40  42  8
41  43  8
42  43  8

$$$$
