11992146
  -OEChem-03202504522D

 37 40  0     0  0  0  0  0  0999 V2000
    7.2988   -1.8660    0.0000 F   0  0  0  0  0  0  0  0  0  0  0  0
    3.4030    2.7320    0.0000 O   0  0  0  0  0  0  0  0  0  0  0  0
    5.2152   -0.0727    0.0000 N   0  0  0  0  0  0  0  0  0  0  0  0
    2.5369    1.2320    0.0000 N   0  0  0  0  0  0  0  0  0  0  0  0
    8.7988    0.7321    0.0000 N   0  0  0  0  0  0  0  0  0  0  0  0
    4.2690    0.2321    0.0000 C   0  0  0  0  0  0  0  0  0  0  0  0
    3.4030   -0.2679    0.0000 C   0  0  0  0  0  0  0  0  0  0  0  0
    4.2690    1.2320    0.0000 C   0  0  0  0  0  0  0  0  0  0  0  0
    2.5369    0.2321    0.0000 C   0  0  0  0  0  0  0  0  0  0  0  0
    5.7988    0.7321    0.0000 C   0  0  0  0  0  0  0  0  0  0  0  0
    5.2152    1.5368    0.0000 C   0  0  0  0  0  0  0  0  0  0  0  0
    3.4030    1.7320    0.0000 C   0  0  0  0  0  0  0  0  0  0  0  0
    6.7988    0.7321    0.0000 C   0  0  0  0  0  0  0  0  0  0  0  0
    7.2988   -0.1340    0.0000 C   0  0  0  0  0  0  0  0  0  0  0  0
    7.2988    1.5981    0.0000 C   0  0  0  0  0  0  0  0  0  0  0  0
    8.2988   -0.1340    0.0000 C   0  0  0  0  0  0  0  0  0  0  0  0
    8.7988   -1.0000    0.0000 C   0  0  0  0  0  0  0  0  0  0  0  0
    8.2988    1.5981    0.0000 C   0  0  0  0  0  0  0  0  0  0  0  0
    8.2988   -1.8660    0.0000 C   0  0  0  0  0  0  0  0  0  0  0  0
    9.7988   -1.0000    0.0000 C   0  0  0  0  0  0  0  0  0  0  0  0
    8.7988   -2.7320    0.0000 C   0  0  0  0  0  0  0  0  0  0  0  0
   10.2988   -1.8660    0.0000 C   0  0  0  0  0  0  0  0  0  0  0  0
    9.7988   -2.7320    0.0000 C   0  0  0  0  0  0  0  0  0  0  0  0
    3.0044   -0.7429    0.0000 H   0  0  0  0  0  0  0  0  0  0  0  0
    3.8015   -0.7429    0.0000 H   0  0  0  0  0  0  0  0  0  0  0  0
    1.9264    0.3397    0.0000 H   0  0  0  0  0  0  0  0  0  0  0  0
    2.3249   -0.3506    0.0000 H   0  0  0  0  0  0  0  0  0  0  0  0
    5.4078   -0.6620    0.0000 H   0  0  0  0  0  0  0  0  0  0  0  0
    5.4078    2.1261    0.0000 H   0  0  0  0  0  0  0  0  0  0  0  0
    2.0000    1.5420    0.0000 H   0  0  0  0  0  0  0  0  0  0  0  0
    6.9888   -0.6709    0.0000 H   0  0  0  0  0  0  0  0  0  0  0  0
    6.9888    2.1350    0.0000 H   0  0  0  0  0  0  0  0  0  0  0  0
    8.6088    2.1350    0.0000 H   0  0  0  0  0  0  0  0  0  0  0  0
   10.1088   -0.4631    0.0000 H   0  0  0  0  0  0  0  0  0  0  0  0
    8.4888   -3.2690    0.0000 H   0  0  0  0  0  0  0  0  0  0  0  0
   10.9188   -1.8660    0.0000 H   0  0  0  0  0  0  0  0  0  0  0  0
   10.1088   -3.2690    0.0000 H   0  0  0  0  0  0  0  0  0  0  0  0
  1 19  1  0  0  0  0
  2 12  2  0  0  0  0
  3  6  1  0  0  0  0
  3 10  1  0  0  0  0
  3 28  1  0  0  0  0
  4  9  1  0  0  0  0
  4 12  1  0  0  0  0
  4 30  1  0  0  0  0
  5 16  2  0  0  0  0
  5 18  1  0  0  0  0
  6  7  1  0  0  0  0
  6  8  2  0  0  0  0
  7  9  1  0  0  0  0
  7 24  1  0  0  0  0
  7 25  1  0  0  0  0
  8 11  1  0  0  0  0
  8 12  1  0  0  0  0
  9 26  1  0  0  0  0
  9 27  1  0  0  0  0
 10 11  2  0  0  0  0
 10 13  1  0  0  0  0
 11 29  1  0  0  0  0
 13 14  2  0  0  0  0
 13 15  1  0  0  0  0
 14 16  1  0  0  0  0
 14 31  1  0  0  0  0
 15 18  2  0  0  0  0
 15 32  1  0  0  0  0
 16 17  1  0  0  0  0
 17 19  1  0  0  0  0
 17 20  2  0  0  0  0
 18 33  1  0  0  0  0
 19 21  2  0  0  0  0
 20 22  1  0  0  0  0
 20 34  1  0  0  0  0
 21 23  1  0  0  0  0
 21 35  1  0  0  0  0
 22 23  2  0  0  0  0
 22 36  1  0  0  0  0
 23 37  1  0  0  0  0
M  END
> <PUBCHEM_COMPOUND_CID>
11992146

> <PUBCHEM_COMPOUND_CANONICALIZED>
1

> <PUBCHEM_CACTVS_COMPLEXITY>
446

> <PUBCHEM_CACTVS_HBOND_ACCEPTOR>
3

> <PUBCHEM_CACTVS_HBOND_DONOR>
2

> <PUBCHEM_CACTVS_ROTATABLE_BOND>
2

> <PUBCHEM_CACTVS_SUBSKEYS>
AAADccB7IQAAAAAAAAAAAAAAAAAAAWAAAAA8WIAAAAAAAFgB8AAAHwAQAAAADAjBngw8gJLJkACoAzV3VACCgCA1AiAI2aE4ZNgIIPrA1ZGEIYhglgDIycccicCOAAAAAAAAAAAAAAAAAAAAAAAAAAAAAA==

> <PUBCHEM_IUPAC_OPENEYE_NAME>
2-[2-(2-fluorophenyl)-4-pyridyl]-1,5,6,7-tetrahydropyrrolo[3,2-c]pyridin-4-one

> <PUBCHEM_IUPAC_CAS_NAME>
2-[2-(2-fluorophenyl)-4-pyridinyl]-1,5,6,7-tetrahydropyrrolo[3,2-c]pyridin-4-one

> <PUBCHEM_IUPAC_NAME_MARKUP>
2-[2-(2-fluorophenyl)pyridin-4-yl]-1,5,6,7-tetrahydropyrrolo[3,2-c]pyridin-4-one

> <PUBCHEM_IUPAC_NAME>
2-[2-(2-fluorophenyl)pyridin-4-yl]-1,5,6,7-tetrahydropyrrolo[3,2-c]pyridin-4-one

> <PUBCHEM_IUPAC_SYSTEMATIC_NAME>
2-[2-(2-fluorophenyl)pyridin-4-yl]-1,5,6,7-tetrahydropyrrolo[3,2-c]pyridin-4-one

> <PUBCHEM_IUPAC_TRADITIONAL_NAME>
2-[2-(2-fluorophenyl)-4-pyridyl]-1,5,6,7-tetrahydropyrrolo[3,2-c]pyridin-4-one

> <PUBCHEM_IUPAC_INCHI>
InChI=1S/C18H14FN3O/c19-14-4-2-1-3-12(14)17-9-11(5-7-20-17)16-10-13-15(22-16)6-8-21-18(13)23/h1-5,7,9-10,22H,6,8H2,(H,21,23)

> <PUBCHEM_IUPAC_INCHIKEY>
XJJYJNMNYDNXNO-UHFFFAOYSA-N

> <PUBCHEM_XLOGP3_AA>
2.4

> <PUBCHEM_EXACT_MASS>
307.11209024

> <PUBCHEM_MOLECULAR_FORMULA>
C18H14FN3O

> <PUBCHEM_MOLECULAR_WEIGHT>
307.3

> <PUBCHEM_SMILES>
C1CNC(=O)C2=C1NC(=C2)C3=CC(=NC=C3)C4=CC=CC=C4F

> <PUBCHEM_OPENEYE_CAN_SMILES>
C1CNC(=O)C2=C1NC(=C2)C3=CC(=NC=C3)C4=CC=CC=C4F

> <PUBCHEM_OPENEYE_ISO_SMILES>
C1CNC(=O)C2=C1NC(=C2)C3=CC(=NC=C3)C4=CC=CC=C4F

> <PUBCHEM_CACTVS_TPSA>
57.8

> <PUBCHEM_MONOISOTOPIC_WEIGHT>
307.11209024

> <PUBCHEM_TOTAL_CHARGE>
0

> <PUBCHEM_HEAVY_ATOM_COUNT>
23

> <PUBCHEM_ATOM_DEF_STEREO_COUNT>
0

> <PUBCHEM_ATOM_UDEF_STEREO_COUNT>
0

> <PUBCHEM_BOND_DEF_STEREO_COUNT>
0

> <PUBCHEM_BOND_UDEF_STEREO_COUNT>
0

> <PUBCHEM_ISOTOPIC_ATOM_COUNT>
0

> <PUBCHEM_COMPONENT_COUNT>
1

> <PUBCHEM_CACTVS_TAUTO_COUNT>
-1

> <PUBCHEM_COORDINATE_TYPE>
1
5
255

> <PUBCHEM_BONDANNOTATIONS>
10  11  8
13  14  8
13  15  8
14  16  8
15  18  8
17  19  8
17  20  8
19  21  8
20  22  8
21  23  8
22  23  8
3  10  8
3  6  8
5  16  8
5  18  8
6  8  8
8  11  8

$$$$
