49830622
  -OEChem-03202503502D

 30 32  0     0  0  0  0  0  0999 V2000
    3.7320    2.6970    0.0000 O   0  0  0  0  0  0  0  0  0  0  0  0
    7.2764   -2.1077    0.0000 N   0  0  0  0  0  0  0  0  0  0  0  0
    5.4641   -2.3030    0.0000 N   0  0  0  0  0  0  0  0  0  0  0  0
    4.5981   -0.8030    0.0000 C   0  0  0  0  0  0  0  0  0  0  0  0
    6.3301   -0.8030    0.0000 C   0  0  0  0  0  0  0  0  0  0  0  0
    3.7320   -0.3030    0.0000 C   0  0  0  0  0  0  0  0  0  0  0  0
    5.4641   -0.3030    0.0000 C   0  0  0  0  0  0  0  0  0  0  0  0
    6.3301   -1.8030    0.0000 C   0  0  0  0  0  0  0  0  0  0  0  0
    3.7320    0.6970    0.0000 C   0  0  0  0  0  0  0  0  0  0  0  0
    4.5981   -1.8030    0.0000 C   0  0  0  0  0  0  0  0  0  0  0  0
    7.2764   -0.4982    0.0000 C   0  0  0  0  0  0  0  0  0  0  0  0
    2.8660    1.1970    0.0000 C   0  0  0  0  0  0  0  0  0  0  0  0
    2.8660   -0.8030    0.0000 C   0  0  0  0  0  0  0  0  0  0  0  0
    7.8600   -1.3030    0.0000 C   0  0  0  0  0  0  0  0  0  0  0  0
    2.0000    0.6970    0.0000 C   0  0  0  0  0  0  0  0  0  0  0  0
    2.0000   -0.3030    0.0000 C   0  0  0  0  0  0  0  0  0  0  0  0
    2.8660    2.1970    0.0000 C   0  0  0  0  0  0  0  0  0  0  0  0
    2.0000    2.6970    0.0000 C   0  0  0  0  0  0  0  0  0  0  0  0
    5.4641    0.3170    0.0000 H   0  0  0  0  0  0  0  0  0  0  0  0
    4.2690    1.0070    0.0000 H   0  0  0  0  0  0  0  0  0  0  0  0
    4.0611   -2.1130    0.0000 H   0  0  0  0  0  0  0  0  0  0  0  0
    7.4690    0.0911    0.0000 H   0  0  0  0  0  0  0  0  0  0  0  0
    2.8660   -1.4230    0.0000 H   0  0  0  0  0  0  0  0  0  0  0  0
    7.4690   -2.6970    0.0000 H   0  0  0  0  0  0  0  0  0  0  0  0
    8.4800   -1.3030    0.0000 H   0  0  0  0  0  0  0  0  0  0  0  0
    1.4631    1.0070    0.0000 H   0  0  0  0  0  0  0  0  0  0  0  0
    1.4631   -0.6130    0.0000 H   0  0  0  0  0  0  0  0  0  0  0  0
    2.3100    3.2340    0.0000 H   0  0  0  0  0  0  0  0  0  0  0  0
    1.4631    3.0070    0.0000 H   0  0  0  0  0  0  0  0  0  0  0  0
    1.6900    2.1601    0.0000 H   0  0  0  0  0  0  0  0  0  0  0  0
  1 17  2  0  0  0  0
  2  8  1  0  0  0  0
  2 14  1  0  0  0  0
  2 24  1  0  0  0  0
  3  8  2  0  0  0  0
  3 10  1  0  0  0  0
  4  6  1  0  0  0  0
  4  7  1  0  0  0  0
  4 10  2  0  0  0  0
  5  7  2  0  0  0  0
  5  8  1  0  0  0  0
  5 11  1  0  0  0  0
  6  9  2  0  0  0  0
  6 13  1  0  0  0  0
  7 19  1  0  0  0  0
  9 12  1  0  0  0  0
  9 20  1  0  0  0  0
 10 21  1  0  0  0  0
 11 14  2  0  0  0  0
 11 22  1  0  0  0  0
 12 15  2  0  0  0  0
 12 17  1  0  0  0  0
 13 16  2  0  0  0  0
 13 23  1  0  0  0  0
 14 25  1  0  0  0  0
 15 16  1  0  0  0  0
 15 26  1  0  0  0  0
 16 27  1  0  0  0  0
 17 18  1  0  0  0  0
 18 28  1  0  0  0  0
 18 29  1  0  0  0  0
 18 30  1  0  0  0  0
M  END
> <PUBCHEM_COMPOUND_CID>
49830622

> <PUBCHEM_COMPOUND_CANONICALIZED>
1

> <PUBCHEM_CACTVS_COMPLEXITY>
318

> <PUBCHEM_CACTVS_HBOND_ACCEPTOR>
2

> <PUBCHEM_CACTVS_HBOND_DONOR>
1

> <PUBCHEM_CACTVS_ROTATABLE_BOND>
2

> <PUBCHEM_CACTVS_SUBSKEYS>
AAADccBzIAAAAAAAAAAAAAAAAAAAAWAAAAA8QAAAAAAAAFgB/AAAHgAQAAAADATBmwQ/sN7JkACoArJ3ZACCgCm1AqAJ2aE4ZNiIKPLAnZGEIQhokALIyacYiMCOgAACAAAAAAAAAAQAAAAAAAAAAAAAAA==

> <PUBCHEM_IUPAC_OPENEYE_NAME>
1-[3-(1H-pyrrolo[2,3-b]pyridin-5-yl)phenyl]ethanone

> <PUBCHEM_IUPAC_CAS_NAME>
1-[3-(1H-pyrrolo[2,3-b]pyridin-5-yl)phenyl]ethanone

> <PUBCHEM_IUPAC_NAME_MARKUP>
1-[3-(1<I>H</I>-pyrrolo[2,3-b]pyridin-5-yl)phenyl]ethanone

> <PUBCHEM_IUPAC_NAME>
1-[3-(1H-pyrrolo[2,3-b]pyridin-5-yl)phenyl]ethanone

> <PUBCHEM_IUPAC_SYSTEMATIC_NAME>
1-[3-(1H-pyrrolo[2,3-b]pyridin-5-yl)phenyl]ethanone

> <PUBCHEM_IUPAC_TRADITIONAL_NAME>
1-[3-(1H-pyrrolo[2,3-b]pyridin-5-yl)phenyl]ethanone

> <PUBCHEM_IUPAC_INCHI>
InChI=1S/C15H12N2O/c1-10(18)11-3-2-4-12(7-11)14-8-13-5-6-16-15(13)17-9-14/h2-9H,1H3,(H,16,17)

> <PUBCHEM_IUPAC_INCHIKEY>
IJRBJCMLWLFMIN-UHFFFAOYSA-N

> <PUBCHEM_XLOGP3_AA>
2.6

> <PUBCHEM_EXACT_MASS>
236.094963011

> <PUBCHEM_MOLECULAR_FORMULA>
C15H12N2O

> <PUBCHEM_MOLECULAR_WEIGHT>
236.27

> <PUBCHEM_SMILES>
CC(=O)C1=CC=CC(=C1)C2=CN=C3C(=C2)C=CN3

> <PUBCHEM_OPENEYE_CAN_SMILES>
CC(=O)C1=CC=CC(=C1)C2=CN=C3C(=C2)C=CN3

> <PUBCHEM_OPENEYE_ISO_SMILES>
CC(=O)C1=CC=CC(=C1)C2=CN=C3C(=C2)C=CN3

> <PUBCHEM_CACTVS_TPSA>
45.8

> <PUBCHEM_MONOISOTOPIC_WEIGHT>
236.094963011

> <PUBCHEM_TOTAL_CHARGE>
0

> <PUBCHEM_HEAVY_ATOM_COUNT>
18

> <PUBCHEM_ATOM_DEF_STEREO_COUNT>
0

> <PUBCHEM_ATOM_UDEF_STEREO_COUNT>
0

> <PUBCHEM_BOND_DEF_STEREO_COUNT>
0

> <PUBCHEM_BOND_UDEF_STEREO_COUNT>
0

> <PUBCHEM_ISOTOPIC_ATOM_COUNT>
0

> <PUBCHEM_COMPONENT_COUNT>
1

> <PUBCHEM_CACTVS_TAUTO_COUNT>
-1

> <PUBCHEM_COORDINATE_TYPE>
1
5
255

> <PUBCHEM_BONDANNOTATIONS>
11  14  8
12  15  8
13  16  8
15  16  8
2  14  8
2  8  8
3  10  8
3  8  8
4  10  8
4  7  8
5  11  8
5  7  8
5  8  8
6  13  8
6  9  8
9  12  8

$$$$
