22911602
  -OEChem-03202506592D

 62 67  0     0  0  0  0  0  0999 V2000
    3.4026    3.2609    0.0000 O   0  0  0  0  0  0  0  0  0  0  0  0
    6.7523    4.3429    0.0000 O   0  0  0  0  0  0  0  0  0  0  0  0
    4.6783   -0.1108    0.0000 N   0  0  0  0  0  0  0  0  0  0  0  0
    5.6103   -2.9624    0.0000 N   0  0  0  0  0  0  0  0  0  0  0  0
    4.9917    4.0672    0.0000 N   0  0  0  0  0  0  0  0  0  0  0  0
    7.6900    0.8620    0.0000 N   0  0  0  0  0  0  0  0  0  0  0  0
    4.9889   -1.0613    0.0000 C   0  0  0  0  0  0  0  0  0  0  0  0
    5.9674   -1.2676    0.0000 C   0  0  0  0  0  0  0  0  0  0  0  0
    4.3211   -1.8056    0.0000 C   0  0  0  0  0  0  0  0  0  0  0  0
    6.2781   -2.2181    0.0000 C   0  0  0  0  0  0  0  0  0  0  0  0
    4.6318   -2.7562    0.0000 C   0  0  0  0  0  0  0  0  0  0  0  0
    3.7320    0.1939    0.0000 C   0  0  0  0  0  0  0  0  0  0  0  0
    5.2619    0.6939    0.0000 C   0  0  0  0  0  0  0  0  0  0  0  0
    5.9209   -3.9129    0.0000 C   0  0  0  0  0  0  0  0  0  0  0  0
    4.6783    1.4986    0.0000 C   0  0  0  0  0  0  0  0  0  0  0  0
    3.7320    1.1939    0.0000 C   0  0  0  0  0  0  0  0  0  0  0  0
    4.9889    2.4492    0.0000 C   0  0  0  0  0  0  0  0  0  0  0  0
    2.8660   -0.3061    0.0000 C   0  0  0  0  0  0  0  0  0  0  0  0
    5.2531   -4.6572    0.0000 C   0  0  0  0  0  0  0  0  0  0  0  0
    2.8660    1.6939    0.0000 C   0  0  0  0  0  0  0  0  0  0  0  0
    5.9405    2.7566    0.0000 C   0  0  0  0  0  0  0  0  0  0  0  0
    2.0000    0.1939    0.0000 C   0  0  0  0  0  0  0  0  0  0  0  0
    6.7485    2.1674    0.0000 C   0  0  0  0  0  0  0  0  0  0  0  0
    4.4026    3.2592    0.0000 C   0  0  0  0  0  0  0  0  0  0  0  0
    2.0000    1.1939    0.0000 C   0  0  0  0  0  0  0  0  0  0  0  0
    5.9422    3.7565    0.0000 C   0  0  0  0  0  0  0  0  0  0  0  0
    7.6942    2.4737    0.0000 C   0  0  0  0  0  0  0  0  0  0  0  0
    6.7459    1.1733    0.0000 C   0  0  0  0  0  0  0  0  0  0  0  0
    8.2792    1.6627    0.0000 C   0  0  0  0  0  0  0  0  0  0  0  0
    8.1041    3.3859    0.0000 C   0  0  0  0  0  0  0  0  0  0  0  0
    9.2741    1.7638    0.0000 C   0  0  0  0  0  0  0  0  0  0  0  0
    7.9941   -0.0906    0.0000 C   0  0  0  0  0  0  0  0  0  0  0  0
    9.0990    3.4870    0.0000 C   0  0  0  0  0  0  0  0  0  0  0  0
    9.6840    2.6759    0.0000 C   0  0  0  0  0  0  0  0  0  0  0  0
    5.4030   -0.5999    0.0000 H   0  0  0  0  0  0  0  0  0  0  0  0
    6.5812   -1.1802    0.0000 H   0  0  0  0  0  0  0  0  0  0  0  0
    5.9880   -0.6479    0.0000 H   0  0  0  0  0  0  0  0  0  0  0  0
    3.9385   -1.3177    0.0000 H   0  0  0  0  0  0  0  0  0  0  0  0
    3.7742   -2.0976    0.0000 H   0  0  0  0  0  0  0  0  0  0  0  0
    6.6607   -2.7060    0.0000 H   0  0  0  0  0  0  0  0  0  0  0  0
    6.8250   -1.9260    0.0000 H   0  0  0  0  0  0  0  0  0  0  0  0
    4.0179   -2.8435    0.0000 H   0  0  0  0  0  0  0  0  0  0  0  0
    4.6112   -3.3758    0.0000 H   0  0  0  0  0  0  0  0  0  0  0  0
    5.8819    0.6939    0.0000 H   0  0  0  0  0  0  0  0  0  0  0  0
    6.3035   -4.4008    0.0000 H   0  0  0  0  0  0  0  0  0  0  0  0
    6.4678   -3.6209    0.0000 H   0  0  0  0  0  0  0  0  0  0  0  0
    2.8660   -0.9261    0.0000 H   0  0  0  0  0  0  0  0  0  0  0  0
    4.7916   -4.2431    0.0000 H   0  0  0  0  0  0  0  0  0  0  0  0
    4.8390   -5.1187    0.0000 H   0  0  0  0  0  0  0  0  0  0  0  0
    5.7145   -5.0713    0.0000 H   0  0  0  0  0  0  0  0  0  0  0  0
    2.8660    2.3139    0.0000 H   0  0  0  0  0  0  0  0  0  0  0  0
    1.4631   -0.1161    0.0000 H   0  0  0  0  0  0  0  0  0  0  0  0
    1.4631    1.5039    0.0000 H   0  0  0  0  0  0  0  0  0  0  0  0
    4.8012    4.6572    0.0000 H   0  0  0  0  0  0  0  0  0  0  0  0
    6.2431    0.8106    0.0000 H   0  0  0  0  0  0  0  0  0  0  0  0
    7.7414    3.8887    0.0000 H   0  0  0  0  0  0  0  0  0  0  0  0
    9.6368    1.2609    0.0000 H   0  0  0  0  0  0  0  0  0  0  0  0
    7.4035   -0.2792    0.0000 H   0  0  0  0  0  0  0  0  0  0  0  0
    8.1826   -0.6813    0.0000 H   0  0  0  0  0  0  0  0  0  0  0  0
    8.5848    0.0979    0.0000 H   0  0  0  0  0  0  0  0  0  0  0  0
    9.3531    4.0525    0.0000 H   0  0  0  0  0  0  0  0  0  0  0  0
   10.3008    2.7386    0.0000 H   0  0  0  0  0  0  0  0  0  0  0  0
  1 24  2  0  0  0  0
  2 26  2  0  0  0  0
  3  7  1  0  0  0  0
  3 12  1  0  0  0  0
  3 13  1  0  0  0  0
  4 10  1  0  0  0  0
  4 11  1  0  0  0  0
  4 14  1  0  0  0  0
  5 24  1  0  0  0  0
  5 26  1  0  0  0  0
  5 54  1  0  0  0  0
  6 28  1  0  0  0  0
  6 29  1  0  0  0  0
  6 32  1  0  0  0  0
  7  8  1  0  0  0  0
  7  9  1  0  0  0  0
  7 35  1  0  0  0  0
  8 10  1  0  0  0  0
  8 36  1  0  0  0  0
  8 37  1  0  0  0  0
  9 11  1  0  0  0  0
  9 38  1  0  0  0  0
  9 39  1  0  0  0  0
 10 40  1  0  0  0  0
 10 41  1  0  0  0  0
 11 42  1  0  0  0  0
 11 43  1  0  0  0  0
 12 16  1  0  0  0  0
 12 18  2  0  0  0  0
 13 15  2  0  0  0  0
 13 44  1  0  0  0  0
 14 19  1  0  0  0  0
 14 45  1  0  0  0  0
 14 46  1  0  0  0  0
 15 16  1  0  0  0  0
 15 17  1  0  0  0  0
 16 20  2  0  0  0  0
 17 21  2  0  0  0  0
 17 24  1  0  0  0  0
 18 22  1  0  0  0  0
 18 47  1  0  0  0  0
 19 48  1  0  0  0  0
 19 49  1  0  0  0  0
 19 50  1  0  0  0  0
 20 25  1  0  0  0  0
 20 51  1  0  0  0  0
 21 23  1  0  0  0  0
 21 26  1  0  0  0  0
 22 25  2  0  0  0  0
 22 52  1  0  0  0  0
 23 27  1  0  0  0  0
 23 28  2  0  0  0  0
 25 53  1  0  0  0  0
 27 29  1  0  0  0  0
 27 30  2  0  0  0  0
 28 55  1  0  0  0  0
 29 31  2  0  0  0  0
 30 33  1  0  0  0  0
 30 56  1  0  0  0  0
 31 34  1  0  0  0  0
 31 57  1  0  0  0  0
 32 58  1  0  0  0  0
 32 59  1  0  0  0  0
 32 60  1  0  0  0  0
 33 34  2  0  0  0  0
 33 61  1  0  0  0  0
 34 62  1  0  0  0  0
M  END
> <PUBCHEM_COMPOUND_CID>
22911602

> <PUBCHEM_COMPOUND_CANONICALIZED>
1

> <PUBCHEM_CACTVS_COMPLEXITY>
847

> <PUBCHEM_CACTVS_HBOND_ACCEPTOR>
3

> <PUBCHEM_CACTVS_HBOND_DONOR>
1

> <PUBCHEM_CACTVS_ROTATABLE_BOND>
4

> <PUBCHEM_CACTVS_SUBSKEYS>
AAADceB7sAAAAAAAAAAAAAAAAAAAAWLEAAA8YIAAAAAAAFgB/gAAHgAQAAAADCjBngQ+wPPMEACoAzV3VACCgCAxAiAI2CE4ZNgIIPLA1ZGEIAhghCDIyQccicCegAAAAAACAAAAAAAAAAQAAAAAAAAAAA==

> <PUBCHEM_IUPAC_OPENEYE_NAME>
3-[1-(1-ethyl-4-piperidyl)indol-3-yl]-4-(1-methylindol-3-yl)pyrrole-2,5-dione

> <PUBCHEM_IUPAC_CAS_NAME>
3-[1-(1-ethyl-4-piperidinyl)-3-indolyl]-4-(1-methyl-3-indolyl)pyrrole-2,5-dione

> <PUBCHEM_IUPAC_NAME_MARKUP>
3-[1-(1-ethylpiperidin-4-yl)indol-3-yl]-4-(1-methylindol-3-yl)pyrrole-2,5-dione

> <PUBCHEM_IUPAC_NAME>
3-[1-(1-ethylpiperidin-4-yl)indol-3-yl]-4-(1-methylindol-3-yl)pyrrole-2,5-dione

> <PUBCHEM_IUPAC_SYSTEMATIC_NAME>
3-[1-(1-ethylpiperidin-4-yl)indol-3-yl]-4-(1-methylindol-3-yl)pyrrole-2,5-dione

> <PUBCHEM_IUPAC_TRADITIONAL_NAME>
3-[1-(1-ethyl-4-piperidyl)indol-3-yl]-4-(1-methylindol-3-yl)-3-pyrroline-2,5-quinone

> <PUBCHEM_IUPAC_INCHI>
InChI=1S/C28H28N4O2/c1-3-31-14-12-18(13-15-31)32-17-22(20-9-5-7-11-24(20)32)26-25(27(33)29-28(26)34)21-16-30(2)23-10-6-4-8-19(21)23/h4-11,16-18H,3,12-15H2,1-2H3,(H,29,33,34)

> <PUBCHEM_IUPAC_INCHIKEY>
ARKNUCQRPYIUMU-UHFFFAOYSA-N

> <PUBCHEM_XLOGP3_AA>
3.6

> <PUBCHEM_EXACT_MASS>
452.22122615

> <PUBCHEM_MOLECULAR_FORMULA>
C28H28N4O2

> <PUBCHEM_MOLECULAR_WEIGHT>
452.5

> <PUBCHEM_SMILES>
CCN1CCC(CC1)N2C=C(C3=CC=CC=C32)C4=C(C(=O)NC4=O)C5=CN(C6=CC=CC=C65)C

> <PUBCHEM_OPENEYE_CAN_SMILES>
CCN1CCC(CC1)N2C=C(C3=CC=CC=C32)C4=C(C(=O)NC4=O)C5=CN(C6=CC=CC=C65)C

> <PUBCHEM_OPENEYE_ISO_SMILES>
CCN1CCC(CC1)N2C=C(C3=CC=CC=C32)C4=C(C(=O)NC4=O)C5=CN(C6=CC=CC=C65)C

> <PUBCHEM_CACTVS_TPSA>
59.3

> <PUBCHEM_MONOISOTOPIC_WEIGHT>
452.22122615

> <PUBCHEM_TOTAL_CHARGE>
0

> <PUBCHEM_HEAVY_ATOM_COUNT>
34

> <PUBCHEM_ATOM_DEF_STEREO_COUNT>
0

> <PUBCHEM_ATOM_UDEF_STEREO_COUNT>
0

> <PUBCHEM_BOND_DEF_STEREO_COUNT>
0

> <PUBCHEM_BOND_UDEF_STEREO_COUNT>
0

> <PUBCHEM_ISOTOPIC_ATOM_COUNT>
0

> <PUBCHEM_COMPONENT_COUNT>
1

> <PUBCHEM_CACTVS_TAUTO_COUNT>
-1

> <PUBCHEM_COORDINATE_TYPE>
1
5
255

> <PUBCHEM_BONDANNOTATIONS>
12  16  8
12  18  8
13  15  8
15  16  8
16  20  8
18  22  8
20  25  8
22  25  8
23  27  8
23  28  8
27  29  8
27  30  8
29  31  8
3  12  8
3  13  8
30  33  8
31  34  8
33  34  8
6  28  8
6  29  8

$$$$
