49830654
  -OEChem-03202502062D

 68 71  0     0  0  0  0  0  0999 V2000
    5.5717    1.1637    0.0000 O   0  0  0  0  0  0  0  0  0  0  0  0
    9.0635   -1.5729    0.0000 O   0  0  0  0  0  0  0  0  0  0  0  0
    5.4672   -1.8308    0.0000 N   0  0  0  0  0  0  0  0  0  0  0  0
    4.4890   -2.0388    0.0000 N   0  0  0  0  0  0  0  0  0  0  0  0
    6.4378   -0.3363    0.0000 N   0  0  0  0  0  0  0  0  0  0  0  0
    9.5987   -3.2202    0.0000 N   0  0  0  0  0  0  0  0  0  0  0  0
    7.3038    1.1637    0.0000 N   0  0  0  0  0  0  0  0  0  0  0  0
   12.2440   -3.2713    0.0000 N   0  0  0  0  0  0  0  0  0  0  0  0
    2.9945   -1.0682    0.0000 C   0  0  0  0  0  0  0  0  0  0  0  0
    3.9890   -1.1727    0.0000 C   0  0  0  0  0  0  0  0  0  0  0  0
    2.0000   -0.9637    0.0000 C   0  0  0  0  0  0  0  0  0  0  0  0
    2.8900   -2.0627    0.0000 C   0  0  0  0  0  0  0  0  0  0  0  0
    3.0990   -0.0737    0.0000 C   0  0  0  0  0  0  0  0  0  0  0  0
    4.6582   -0.4296    0.0000 C   0  0  0  0  0  0  0  0  0  0  0  0
    5.5717   -0.8363    0.0000 C   0  0  0  0  0  0  0  0  0  0  0  0
    6.2103   -2.5000    0.0000 C   0  0  0  0  0  0  0  0  0  0  0  0
    7.1614   -2.1910    0.0000 C   0  0  0  0  0  0  0  0  0  0  0  0
    6.0024   -3.4781    0.0000 C   0  0  0  0  0  0  0  0  0  0  0  0
    7.9045   -2.8601    0.0000 C   0  0  0  0  0  0  0  0  0  0  0  0
    6.4378    0.6637    0.0000 C   0  0  0  0  0  0  0  0  0  0  0  0
    6.7456   -4.1472    0.0000 C   0  0  0  0  0  0  0  0  0  0  0  0
    7.6966   -3.8382    0.0000 C   0  0  0  0  0  0  0  0  0  0  0  0
    8.8556   -2.5511    0.0000 C   0  0  0  0  0  0  0  0  0  0  0  0
    7.3038    2.1637    0.0000 C   0  0  0  0  0  0  0  0  0  0  0  0
   10.5498   -2.9112    0.0000 C   0  0  0  0  0  0  0  0  0  0  0  0
    8.1698    2.6637    0.0000 C   0  0  0  0  0  0  0  0  0  0  0  0
    8.1698    3.6637    0.0000 C   0  0  0  0  0  0  0  0  0  0  0  0
   11.2929   -3.5803    0.0000 C   0  0  0  0  0  0  0  0  0  0  0  0
    9.3908   -4.1983    0.0000 C   0  0  0  0  0  0  0  0  0  0  0  0
    6.4378    2.6637    0.0000 C   0  0  0  0  0  0  0  0  0  0  0  0
    9.0637    2.1290    0.0000 C   0  0  0  0  0  0  0  0  0  0  0  0
    7.3038    4.1637    0.0000 C   0  0  0  0  0  0  0  0  0  0  0  0
    6.4378    3.6637    0.0000 C   0  0  0  0  0  0  0  0  0  0  0  0
    9.0637    4.1983    0.0000 C   0  0  0  0  0  0  0  0  0  0  0  0
    9.9698    2.6429    0.0000 C   0  0  0  0  0  0  0  0  0  0  0  0
    9.9698    3.6845    0.0000 C   0  0  0  0  0  0  0  0  0  0  0  0
    2.0648   -0.3471    0.0000 H   0  0  0  0  0  0  0  0  0  0  0  0
    1.3834   -0.8989    0.0000 H   0  0  0  0  0  0  0  0  0  0  0  0
    1.9352   -1.5803    0.0000 H   0  0  0  0  0  0  0  0  0  0  0  0
    2.2734   -1.9979    0.0000 H   0  0  0  0  0  0  0  0  0  0  0  0
    2.8252   -2.6793    0.0000 H   0  0  0  0  0  0  0  0  0  0  0  0
    3.5066   -2.1275    0.0000 H   0  0  0  0  0  0  0  0  0  0  0  0
    3.7156   -0.1385    0.0000 H   0  0  0  0  0  0  0  0  0  0  0  0
    3.1639    0.5429    0.0000 H   0  0  0  0  0  0  0  0  0  0  0  0
    2.4824   -0.0089    0.0000 H   0  0  0  0  0  0  0  0  0  0  0  0
    4.5293    0.1769    0.0000 H   0  0  0  0  0  0  0  0  0  0  0  0
    6.9747   -0.6463    0.0000 H   0  0  0  0  0  0  0  0  0  0  0  0
    7.2903   -1.5845    0.0000 H   0  0  0  0  0  0  0  0  0  0  0  0
    5.4128   -3.6697    0.0000 H   0  0  0  0  0  0  0  0  0  0  0  0
    6.6167   -4.7537    0.0000 H   0  0  0  0  0  0  0  0  0  0  0  0
    8.1574   -4.2531    0.0000 H   0  0  0  0  0  0  0  0  0  0  0  0
    7.8407    0.8537    0.0000 H   0  0  0  0  0  0  0  0  0  0  0  0
   11.0384   -2.5295    0.0000 H   0  0  0  0  0  0  0  0  0  0  0  0
   10.2587   -2.3638    0.0000 H   0  0  0  0  0  0  0  0  0  0  0  0
   10.8044   -3.9620    0.0000 H   0  0  0  0  0  0  0  0  0  0  0  0
   11.5840   -4.1277    0.0000 H   0  0  0  0  0  0  0  0  0  0  0  0
    8.7844   -4.0694    0.0000 H   0  0  0  0  0  0  0  0  0  0  0  0
    9.2619   -4.8048    0.0000 H   0  0  0  0  0  0  0  0  0  0  0  0
    9.9973   -4.3272    0.0000 H   0  0  0  0  0  0  0  0  0  0  0  0
    5.9008    2.3537    0.0000 H   0  0  0  0  0  0  0  0  0  0  0  0
    9.0566    1.5091    0.0000 H   0  0  0  0  0  0  0  0  0  0  0  0
    7.3038    4.7837    0.0000 H   0  0  0  0  0  0  0  0  0  0  0  0
    5.9008    3.9737    0.0000 H   0  0  0  0  0  0  0  0  0  0  0  0
    9.0566    4.8183    0.0000 H   0  0  0  0  0  0  0  0  0  0  0  0
   10.5055    2.3308    0.0000 H   0  0  0  0  0  0  0  0  0  0  0  0
   10.5055    3.9966    0.0000 H   0  0  0  0  0  0  0  0  0  0  0  0
   12.7047   -3.6862    0.0000 H   0  0  0  0  0  0  0  0  0  0  0  0
   12.3729   -2.6648    0.0000 H   0  0  0  0  0  0  0  0  0  0  0  0
  1 20  2  0  0  0  0
  2 23  2  0  0  0  0
  3  4  1  0  0  0  0
  3 15  1  0  0  0  0
  3 16  1  0  0  0  0
  4 10  2  0  0  0  0
  5 15  1  0  0  0  0
  5 20  1  0  0  0  0
  5 47  1  0  0  0  0
  6 23  1  0  0  0  0
  6 25  1  0  0  0  0
  6 29  1  0  0  0  0
  7 20  1  0  0  0  0
  7 24  1  0  0  0  0
  7 52  1  0  0  0  0
  8 28  1  0  0  0  0
  8 67  1  0  0  0  0
  8 68  1  0  0  0  0
  9 10  1  0  0  0  0
  9 11  1  0  0  0  0
  9 12  1  0  0  0  0
  9 13  1  0  0  0  0
 10 14  1  0  0  0  0
 11 37  1  0  0  0  0
 11 38  1  0  0  0  0
 11 39  1  0  0  0  0
 12 40  1  0  0  0  0
 12 41  1  0  0  0  0
 12 42  1  0  0  0  0
 13 43  1  0  0  0  0
 13 44  1  0  0  0  0
 13 45  1  0  0  0  0
 14 15  2  0  0  0  0
 14 46  1  0  0  0  0
 16 17  1  0  0  0  0
 16 18  2  0  0  0  0
 17 19  2  0  0  0  0
 17 48  1  0  0  0  0
 18 21  1  0  0  0  0
 18 49  1  0  0  0  0
 19 22  1  0  0  0  0
 19 23  1  0  0  0  0
 21 22  2  0  0  0  0
 21 50  1  0  0  0  0
 22 51  1  0  0  0  0
 24 26  1  0  0  0  0
 24 30  2  0  0  0  0
 25 28  1  0  0  0  0
 25 53  1  0  0  0  0
 25 54  1  0  0  0  0
 26 27  1  0  0  0  0
 26 31  2  0  0  0  0
 27 32  1  0  0  0  0
 27 34  2  0  0  0  0
 28 55  1  0  0  0  0
 28 56  1  0  0  0  0
 29 57  1  0  0  0  0
 29 58  1  0  0  0  0
 29 59  1  0  0  0  0
 30 33  1  0  0  0  0
 30 60  1  0  0  0  0
 31 35  1  0  0  0  0
 31 61  1  0  0  0  0
 32 33  2  0  0  0  0
 32 62  1  0  0  0  0
 33 63  1  0  0  0  0
 34 36  1  0  0  0  0
 34 64  1  0  0  0  0
 35 36  2  0  0  0  0
 35 65  1  0  0  0  0
 36 66  1  0  0  0  0
M  END
> <PUBCHEM_COMPOUND_CID>
49830654

> <PUBCHEM_COMPOUND_CANONICALIZED>
1

> <PUBCHEM_CACTVS_COMPLEXITY>
755

> <PUBCHEM_CACTVS_HBOND_ACCEPTOR>
4

> <PUBCHEM_CACTVS_HBOND_DONOR>
3

> <PUBCHEM_CACTVS_ROTATABLE_BOND>
7

> <PUBCHEM_CACTVS_SUBSKEYS>
AAADcfB7sAAAAAAAAAAAAAAAAAAAAWAAAAAwYMAAAAAAAADB1AAAHgAYAAAADgjBngQz8NPIAACqAydydACSBCMlAgAdmKE4ZNiIYHLA1dGUpQh4nwLIyacciICPgAAAQAASAAAAAACAACQAAAAAAAAAAA==

> <PUBCHEM_IUPAC_OPENEYE_NAME>
N-(2-aminoethyl)-3-[3-tert-butyl-5-(1-naphthylcarbamoylamino)pyrazol-1-yl]-N-methyl-benzamide

> <PUBCHEM_IUPAC_CAS_NAME>
N-(2-aminoethyl)-3-[3-tert-butyl-5-[[(1-naphthalenylamino)-oxomethyl]amino]-1-pyrazolyl]-N-methylbenzamide

> <PUBCHEM_IUPAC_NAME_MARKUP>
<I>N</I>-(2-aminoethyl)-3-[3-<I>tert</I>-butyl-5-(naphthalen-1-ylcarbamoylamino)pyrazol-1-yl]-<I>N</I>-methylbenzamide

> <PUBCHEM_IUPAC_NAME>
N-(2-aminoethyl)-3-[3-tert-butyl-5-(naphthalen-1-ylcarbamoylamino)pyrazol-1-yl]-N-methylbenzamide

> <PUBCHEM_IUPAC_SYSTEMATIC_NAME>
N-(2-azanylethyl)-3-[3-tert-butyl-5-(naphthalen-1-ylcarbamoylamino)pyrazol-1-yl]-N-methyl-benzamide

> <PUBCHEM_IUPAC_TRADITIONAL_NAME>
N-(2-aminoethyl)-3-[3-tert-butyl-5-(1-naphthylcarbamoylamino)pyrazol-1-yl]-N-methyl-benzamide

> <PUBCHEM_IUPAC_INCHI>
InChI=1S/C28H32N6O2/c1-28(2,3)24-18-25(31-27(36)30-23-14-8-10-19-9-5-6-13-22(19)23)34(32-24)21-12-7-11-20(17-21)26(35)33(4)16-15-29/h5-14,17-18H,15-16,29H2,1-4H3,(H2,30,31,36)

> <PUBCHEM_IUPAC_INCHIKEY>
DADQIQQXJSXLAV-UHFFFAOYSA-N

> <PUBCHEM_XLOGP3_AA>
4.3

> <PUBCHEM_EXACT_MASS>
484.25867428

> <PUBCHEM_MOLECULAR_FORMULA>
C28H32N6O2

> <PUBCHEM_MOLECULAR_WEIGHT>
484.6

> <PUBCHEM_SMILES>
CC(C)(C)C1=NN(C(=C1)NC(=O)NC2=CC=CC3=CC=CC=C32)C4=CC=CC(=C4)C(=O)N(C)CCN

> <PUBCHEM_OPENEYE_CAN_SMILES>
CC(C)(C)C1=NN(C(=C1)NC(=O)NC2=CC=CC3=CC=CC=C32)C4=CC=CC(=C4)C(=O)N(C)CCN

> <PUBCHEM_OPENEYE_ISO_SMILES>
CC(C)(C)C1=NN(C(=C1)NC(=O)NC2=CC=CC3=CC=CC=C32)C4=CC=CC(=C4)C(=O)N(C)CCN

> <PUBCHEM_CACTVS_TPSA>
105

> <PUBCHEM_MONOISOTOPIC_WEIGHT>
484.25867428

> <PUBCHEM_TOTAL_CHARGE>
0

> <PUBCHEM_HEAVY_ATOM_COUNT>
36

> <PUBCHEM_ATOM_DEF_STEREO_COUNT>
0

> <PUBCHEM_ATOM_UDEF_STEREO_COUNT>
0

> <PUBCHEM_BOND_DEF_STEREO_COUNT>
0

> <PUBCHEM_BOND_UDEF_STEREO_COUNT>
0

> <PUBCHEM_ISOTOPIC_ATOM_COUNT>
0

> <PUBCHEM_COMPONENT_COUNT>
1

> <PUBCHEM_CACTVS_TAUTO_COUNT>
-1

> <PUBCHEM_COORDINATE_TYPE>
1
5
255

> <PUBCHEM_BONDANNOTATIONS>
10  14  8
14  15  8
16  17  8
16  18  8
17  19  8
18  21  8
19  22  8
21  22  8
24  26  8
24  30  8
26  27  8
26  31  8
27  32  8
27  34  8
3  15  8
3  4  8
30  33  8
31  35  8
32  33  8
34  36  8
35  36  8
4  10  8

$$$$
