49830759
  -OEChem-03202502472D

 44 47  0     0  0  0  0  0  0999 V2000
    8.0836   -1.7698    0.0000 S   0  0  0  0  0  0  0  0  0  0  0  0
    6.0000   -0.0990    0.0000 O   0  0  0  0  0  0  0  0  0  0  0  0
    3.0000   -1.8311    0.0000 N   0  0  0  0  0  0  0  0  0  0  0  0
    6.0000   -1.8311    0.0000 N   0  0  0  0  0  0  0  0  0  0  0  0
   10.5687   -0.9651    0.0000 N   0  0  0  0  0  0  0  0  0  0  0  0
    9.9809   -1.7741    0.0000 N   0  0  0  0  0  0  0  0  0  0  0  0
    5.0000   -1.8311    0.0000 C   0  0  0  0  0  0  0  0  0  0  0  0
    4.5000   -2.6971    0.0000 C   0  0  0  0  0  0  0  0  0  0  0  0
    4.5000   -0.9651    0.0000 C   0  0  0  0  0  0  0  0  0  0  0  0
    3.5000   -2.6971    0.0000 C   0  0  0  0  0  0  0  0  0  0  0  0
    3.5000   -0.9651    0.0000 C   0  0  0  0  0  0  0  0  0  0  0  0
    2.0000   -1.8311    0.0000 C   0  0  0  0  0  0  0  0  0  0  0  0
    6.5000   -0.9651    0.0000 C   0  0  0  0  0  0  0  0  0  0  0  0
    7.5000   -0.9651    0.0000 C   0  0  0  0  0  0  0  0  0  0  0  0
    9.0298   -0.4651    0.0000 C   0  0  0  0  0  0  0  0  0  0  0  0
    8.0836   -0.1603    0.0000 C   0  0  0  0  0  0  0  0  0  0  0  0
    9.0298   -1.4651    0.0000 C   0  0  0  0  0  0  0  0  0  0  0  0
    9.9809   -0.1561    0.0000 C   0  0  0  0  0  0  0  0  0  0  0  0
   10.2899    0.7950    0.0000 C   0  0  0  0  0  0  0  0  0  0  0  0
    9.6208    1.5381    0.0000 C   0  0  0  0  0  0  0  0  0  0  0  0
   11.2681    1.0029    0.0000 C   0  0  0  0  0  0  0  0  0  0  0  0
    9.9298    2.4892    0.0000 C   0  0  0  0  0  0  0  0  0  0  0  0
   11.5771    1.9540    0.0000 C   0  0  0  0  0  0  0  0  0  0  0  0
   10.9079    2.6971    0.0000 C   0  0  0  0  0  0  0  0  0  0  0  0
    5.3100   -1.2942    0.0000 H   0  0  0  0  0  0  0  0  0  0  0  0
    4.3923   -3.3077    0.0000 H   0  0  0  0  0  0  0  0  0  0  0  0
    5.0826   -2.9092    0.0000 H   0  0  0  0  0  0  0  0  0  0  0  0
    5.0826   -0.7530    0.0000 H   0  0  0  0  0  0  0  0  0  0  0  0
    4.3923   -0.3545    0.0000 H   0  0  0  0  0  0  0  0  0  0  0  0
    2.9174   -2.9092    0.0000 H   0  0  0  0  0  0  0  0  0  0  0  0
    3.6077   -3.3077    0.0000 H   0  0  0  0  0  0  0  0  0  0  0  0
    3.6077   -0.3545    0.0000 H   0  0  0  0  0  0  0  0  0  0  0  0
    2.9174   -0.7530    0.0000 H   0  0  0  0  0  0  0  0  0  0  0  0
    6.3100   -2.3680    0.0000 H   0  0  0  0  0  0  0  0  0  0  0  0
    2.0000   -1.2111    0.0000 H   0  0  0  0  0  0  0  0  0  0  0  0
    1.3800   -1.8311    0.0000 H   0  0  0  0  0  0  0  0  0  0  0  0
    2.0000   -2.4511    0.0000 H   0  0  0  0  0  0  0  0  0  0  0  0
    7.8910    0.4290    0.0000 H   0  0  0  0  0  0  0  0  0  0  0  0
   11.1887   -0.9651    0.0000 H   0  0  0  0  0  0  0  0  0  0  0  0
    9.0143    1.4092    0.0000 H   0  0  0  0  0  0  0  0  0  0  0  0
   11.6829    0.5422    0.0000 H   0  0  0  0  0  0  0  0  0  0  0  0
    9.5149    2.9500    0.0000 H   0  0  0  0  0  0  0  0  0  0  0  0
   12.1835    2.0829    0.0000 H   0  0  0  0  0  0  0  0  0  0  0  0
   11.0995    3.2868    0.0000 H   0  0  0  0  0  0  0  0  0  0  0  0
  1 14  1  0  0  0  0
  1 17  1  0  0  0  0
  2 13  2  0  0  0  0
  3 10  1  0  0  0  0
  3 11  1  0  0  0  0
  3 12  1  0  0  0  0
  4  7  1  0  0  0  0
  4 13  1  0  0  0  0
  4 34  1  0  0  0  0
  5  6  1  0  0  0  0
  5 18  1  0  0  0  0
  5 39  1  0  0  0  0
  6 17  2  0  0  0  0
  7  8  1  0  0  0  0
  7  9  1  0  0  0  0
  7 25  1  0  0  0  0
  8 10  1  0  0  0  0
  8 26  1  0  0  0  0
  8 27  1  0  0  0  0
  9 11  1  0  0  0  0
  9 28  1  0  0  0  0
  9 29  1  0  0  0  0
 10 30  1  0  0  0  0
 10 31  1  0  0  0  0
 11 32  1  0  0  0  0
 11 33  1  0  0  0  0
 12 35  1  0  0  0  0
 12 36  1  0  0  0  0
 12 37  1  0  0  0  0
 13 14  1  0  0  0  0
 14 16  2  0  0  0  0
 15 16  1  0  0  0  0
 15 17  1  0  0  0  0
 15 18  2  0  0  0  0
 16 38  1  0  0  0  0
 18 19  1  0  0  0  0
 19 20  2  0  0  0  0
 19 21  1  0  0  0  0
 20 22  1  0  0  0  0
 20 40  1  0  0  0  0
 21 23  2  0  0  0  0
 21 41  1  0  0  0  0
 22 24  2  0  0  0  0
 22 42  1  0  0  0  0
 23 24  1  0  0  0  0
 23 43  1  0  0  0  0
 24 44  1  0  0  0  0
M  END
> <PUBCHEM_COMPOUND_CID>
49830759

> <PUBCHEM_COMPOUND_CANONICALIZED>
1

> <PUBCHEM_CACTVS_COMPLEXITY>
448

> <PUBCHEM_CACTVS_HBOND_ACCEPTOR>
4

> <PUBCHEM_CACTVS_HBOND_DONOR>
2

> <PUBCHEM_CACTVS_ROTATABLE_BOND>
3

> <PUBCHEM_CACTVS_SUBSKEYS>
AAADceB7oABAAAAAAAAAAAAAAAAAAWJAAAA8QAAAAAAWAAAB/AAAHgQYAAAADCjB3gQygdPjAAiuAyVyUACTBIBkCBBYubkoRNgIILKg1dGEpQxgngCoyYcYicCeAAAAAAAAAAAAAAAAAAAAAAAAAAAAAA==

> <PUBCHEM_IUPAC_OPENEYE_NAME>
N-(1-methyl-4-piperidyl)-3-phenyl-2H-thieno[2,3-c]pyrazole-5-carboxamide

> <PUBCHEM_IUPAC_CAS_NAME>
N-(1-methyl-4-piperidinyl)-3-phenyl-2H-thieno[2,3-c]pyrazole-5-carboxamide

> <PUBCHEM_IUPAC_NAME_MARKUP>
<I>N</I>-(1-methylpiperidin-4-yl)-3-phenyl-2<I>H</I>-thieno[2,3-c]pyrazole-5-carboxamide

> <PUBCHEM_IUPAC_NAME>
N-(1-methylpiperidin-4-yl)-3-phenyl-2H-thieno[2,3-c]pyrazole-5-carboxamide

> <PUBCHEM_IUPAC_SYSTEMATIC_NAME>
N-(1-methylpiperidin-4-yl)-3-phenyl-2H-thieno[2,3-c]pyrazole-5-carboxamide

> <PUBCHEM_IUPAC_TRADITIONAL_NAME>
N-(1-methyl-4-piperidyl)-3-phenyl-2H-thieno[2,3-c]pyrazole-5-carboxamide

> <PUBCHEM_IUPAC_INCHI>
InChI=1S/C18H20N4OS/c1-22-9-7-13(8-10-22)19-17(23)15-11-14-16(20-21-18(14)24-15)12-5-3-2-4-6-12/h2-6,11,13H,7-10H2,1H3,(H,19,23)(H,20,21)

> <PUBCHEM_IUPAC_INCHIKEY>
RIBBPSYZBQQTQC-UHFFFAOYSA-N

> <PUBCHEM_XLOGP3_AA>
3.4

> <PUBCHEM_EXACT_MASS>
340.13578245

> <PUBCHEM_MOLECULAR_FORMULA>
C18H20N4OS

> <PUBCHEM_MOLECULAR_WEIGHT>
340.4

> <PUBCHEM_SMILES>
CN1CCC(CC1)NC(=O)C2=CC3=C(NN=C3S2)C4=CC=CC=C4

> <PUBCHEM_OPENEYE_CAN_SMILES>
CN1CCC(CC1)NC(=O)C2=CC3=C(NN=C3S2)C4=CC=CC=C4

> <PUBCHEM_OPENEYE_ISO_SMILES>
CN1CCC(CC1)NC(=O)C2=CC3=C(NN=C3S2)C4=CC=CC=C4

> <PUBCHEM_CACTVS_TPSA>
89.3

> <PUBCHEM_MONOISOTOPIC_WEIGHT>
340.13578245

> <PUBCHEM_TOTAL_CHARGE>
0

> <PUBCHEM_HEAVY_ATOM_COUNT>
24

> <PUBCHEM_ATOM_DEF_STEREO_COUNT>
0

> <PUBCHEM_ATOM_UDEF_STEREO_COUNT>
0

> <PUBCHEM_BOND_DEF_STEREO_COUNT>
0

> <PUBCHEM_BOND_UDEF_STEREO_COUNT>
0

> <PUBCHEM_ISOTOPIC_ATOM_COUNT>
0

> <PUBCHEM_COMPONENT_COUNT>
1

> <PUBCHEM_CACTVS_TAUTO_COUNT>
-1

> <PUBCHEM_COORDINATE_TYPE>
1
5
255

> <PUBCHEM_BONDANNOTATIONS>
1  14  8
1  17  8
14  16  8
15  16  8
15  17  8
15  18  8
19  20  8
19  21  8
20  22  8
21  23  8
22  24  8
23  24  8
5  18  8
5  6  8
6  17  8

$$$$
