104860
  -OEChem-03202506532D

 42 46  0     1  0  0  0  0  0999 V2000
    3.3950   -0.0000    0.0000 O   0  0  0  0  0  0  0  0  0  0  0  0
    2.5392    0.4884    0.0000 O   0  0  0  0  0  0  0  0  0  0  0  0
    4.2018    3.5038    0.0000 O   0  0  0  0  0  0  0  0  0  0  0  0
    4.2018   -3.5038    0.0000 O   0  0  0  0  0  0  0  0  0  0  0  0
    6.0051    3.5692    0.0000 O   0  0  0  0  0  0  0  0  0  0  0  0
    6.0051   -3.5692    0.0000 O   0  0  0  0  0  0  0  0  0  0  0  0
    4.2610   -0.5000    0.0000 C   0  0  2  0  0  0  0  0  0  0  0  0
    4.2610    0.5000    0.0000 C   0  0  1  0  0  0  0  0  0  0  0  0
    5.1270   -1.0000    0.0000 C   0  0  0  0  0  0  0  0  0  0  0  0
    5.1270    1.0000    0.0000 C   0  0  0  0  0  0  0  0  0  0  0  0
    3.4015    0.9948    0.0000 C   0  0  2  0  0  0  0  0  0  0  0  0
    3.4015   -0.9948    0.0000 C   0  0  0  0  0  0  0  0  0  0  0  0
    5.9930   -0.5000    0.0000 C   0  0  0  0  0  0  0  0  0  0  0  0
    5.9930    0.5000    0.0000 C   0  0  0  0  0  0  0  0  0  0  0  0
    3.3881    1.9864    0.0000 C   0  0  0  0  0  0  0  0  0  0  0  0
    3.3881   -1.9864    0.0000 C   0  0  0  0  0  0  0  0  0  0  0  0
    5.1110    2.0415    0.0000 C   0  0  0  0  0  0  0  0  0  0  0  0
    5.1110   -2.0415    0.0000 C   0  0  0  0  0  0  0  0  0  0  0  0
    4.2338    2.5043    0.0000 C   0  0  0  0  0  0  0  0  0  0  0  0
    4.2338   -2.5043    0.0000 C   0  0  0  0  0  0  0  0  0  0  0  0
    6.9030   -1.0068    0.0000 C   0  0  0  0  0  0  0  0  0  0  0  0
    6.9030    1.0068    0.0000 C   0  0  0  0  0  0  0  0  0  0  0  0
    6.0090    2.5693    0.0000 C   0  0  0  0  0  0  0  0  0  0  0  0
    6.0090   -2.5693    0.0000 C   0  0  0  0  0  0  0  0  0  0  0  0
    6.9111    2.0484    0.0000 C   0  0  0  0  0  0  0  0  0  0  0  0
    6.9111   -2.0484    0.0000 C   0  0  0  0  0  0  0  0  0  0  0  0
    4.9971    0.0750    0.0000 H   0  0  0  0  0  0  0  0  0  0  0  0
    3.4042    0.3748    0.0000 H   0  0  0  0  0  0  0  0  0  0  0  0
    3.1926   -0.4110    0.0000 H   0  0  0  0  0  0  0  0  0  0  0  0
    2.7900   -1.0967    0.0000 H   0  0  0  0  0  0  0  0  0  0  0  0
    3.1634    2.5642    0.0000 H   0  0  0  0  0  0  0  0  0  0  0  0
    2.7795    1.8680    0.0000 H   0  0  0  0  0  0  0  0  0  0  0  0
    2.7795   -1.8680    0.0000 H   0  0  0  0  0  0  0  0  0  0  0  0
    3.1634   -2.5642    0.0000 H   0  0  0  0  0  0  0  0  0  0  0  0
    2.8580   -0.3100    0.0000 H   0  0  0  0  0  0  0  0  0  0  0  0
    7.4364   -0.6907    0.0000 H   0  0  0  0  0  0  0  0  0  0  0  0
    7.4364    0.6907    0.0000 H   0  0  0  0  0  0  0  0  0  0  0  0
    2.0000    0.7944    0.0000 H   0  0  0  0  0  0  0  0  0  0  0  0
    7.4492    2.3564    0.0000 H   0  0  0  0  0  0  0  0  0  0  0  0
    7.4492   -2.3564    0.0000 H   0  0  0  0  0  0  0  0  0  0  0  0
    6.5409    3.8813    0.0000 H   0  0  0  0  0  0  0  0  0  0  0  0
    6.5409   -3.8813    0.0000 H   0  0  0  0  0  0  0  0  0  0  0  0
  7  1  1  6  0  0  0
  1 35  1  0  0  0  0
 11  2  1  1  0  0  0
  2 38  1  0  0  0  0
  3 19  2  0  0  0  0
  4 20  2  0  0  0  0
  5 23  1  0  0  0  0
  5 41  1  0  0  0  0
  6 24  1  0  0  0  0
  6 42  1  0  0  0  0
  7  8  1  0  0  0  0
  7  9  1  0  0  0  0
  7 12  1  0  0  0  0
  8 10  1  0  0  0  0
  8 11  1  0  0  0  0
  8 27  1  1  0  0  0
  9 13  2  0  0  0  0
  9 18  1  0  0  0  0
 10 14  2  0  0  0  0
 10 17  1  0  0  0  0
 11 15  1  0  0  0  0
 11 28  1  0  0  0  0
 12 16  1  0  0  0  0
 12 29  1  0  0  0  0
 12 30  1  0  0  0  0
 13 14  1  0  0  0  0
 13 21  1  0  0  0  0
 14 22  1  0  0  0  0
 15 19  1  0  0  0  0
 15 31  1  0  0  0  0
 15 32  1  0  0  0  0
 16 20  1  0  0  0  0
 16 33  1  0  0  0  0
 16 34  1  0  0  0  0
 17 19  1  0  0  0  0
 17 23  2  0  0  0  0
 18 20  1  0  0  0  0
 18 24  2  0  0  0  0
 21 26  2  0  0  0  0
 21 36  1  0  0  0  0
 22 25  2  0  0  0  0
 22 37  1  0  0  0  0
 23 25  1  0  0  0  0
 24 26  1  0  0  0  0
 25 39  1  0  0  0  0
 26 40  1  0  0  0  0
M  END
> <PUBCHEM_COMPOUND_CID>
104860

> <PUBCHEM_COMPOUND_CANONICALIZED>
1

> <PUBCHEM_CACTVS_COMPLEXITY>
648

> <PUBCHEM_CACTVS_HBOND_ACCEPTOR>
6

> <PUBCHEM_CACTVS_HBOND_DONOR>
4

> <PUBCHEM_CACTVS_ROTATABLE_BOND>
0

> <PUBCHEM_CACTVS_SUBSKEYS>
AAADceB4OAAAAAAAAAAAAAAAAAAAAAAAAAAwYMGDAAAAAADBQAAAGgAACAAADVSgmAIwBoAAAgCIAqBSAAACAAAkIAAIiAEGCMgINjaCFBKAcUAl4BEImQfK7PTOoAADAAAYAADAAAYAADAAAAAAAAAAAA==

> <PUBCHEM_IUPAC_OPENEYE_NAME>
(12S,12aS,12bR)-4,9,12,12b-tetrahydroxy-2,11,12,12a-tetrahydro-1H-perylene-3,10-dione

> <PUBCHEM_IUPAC_CAS_NAME>
(12S,12aS,12bR)-4,9,12,12b-tetrahydroxy-2,11,12,12a-tetrahydro-1H-perylene-3,10-dione

> <PUBCHEM_IUPAC_NAME_MARKUP>
(12<I>S</I>,12<I>a</I><I>S</I>,12<I>b</I><I>R</I>)-4,9,12,12<I>b</I>-tetrahydroxy-2,11,12,12<I>a</I>-tetrahydro-1<I>H</I>-perylene-3,10-dione

> <PUBCHEM_IUPAC_NAME>
(12S,12aS,12bR)-4,9,12,12b-tetrahydroxy-2,11,12,12a-tetrahydro-1H-perylene-3,10-dione

> <PUBCHEM_IUPAC_SYSTEMATIC_NAME>
(12S,12aS,12bR)-4,9,12,12b-tetrakis(oxidanyl)-2,11,12,12a-tetrahydro-1H-perylene-3,10-dione

> <PUBCHEM_IUPAC_TRADITIONAL_NAME>
(12S,12aS,12bR)-4,9,12,12b-tetrahydroxy-2,11,12,12a-tetrahydro-1H-perylene-3,10-quinone

> <PUBCHEM_IUPAC_INCHI>
InChI=1S/C20H16O6/c21-10-3-1-8-9-2-4-11(22)17-12(23)5-6-20(26,18(9)17)19-14(25)7-13(24)16(10)15(8)19/h1-4,14,19,21-22,25-26H,5-7H2/t14-,19+,20-/m0/s1

> <PUBCHEM_IUPAC_INCHIKEY>
GJIALGLHOBXNAT-KPOBHBOGSA-N

> <PUBCHEM_XLOGP3_AA>
1.4

> <PUBCHEM_EXACT_MASS>
352.09468823

> <PUBCHEM_MOLECULAR_FORMULA>
C20H16O6

> <PUBCHEM_MOLECULAR_WEIGHT>
352.3

> <PUBCHEM_SMILES>
C1C[C@]2([C@@H]3[C@H](CC(=O)C4=C(C=CC(=C34)C5=C2C(=C(C=C5)O)C1=O)O)O)O

> <PUBCHEM_OPENEYE_CAN_SMILES>
C1CC2(C3C(CC(=O)C4=C(C=CC(=C34)C5=C2C(=C(C=C5)O)C1=O)O)O)O

> <PUBCHEM_OPENEYE_ISO_SMILES>
C1C[C@]2([C@@H]3[C@H](CC(=O)C4=C(C=CC(=C34)C5=C2C(=C(C=C5)O)C1=O)O)O)O

> <PUBCHEM_CACTVS_TPSA>
115

> <PUBCHEM_MONOISOTOPIC_WEIGHT>
352.09468823

> <PUBCHEM_TOTAL_CHARGE>
0

> <PUBCHEM_HEAVY_ATOM_COUNT>
26

> <PUBCHEM_ATOM_DEF_STEREO_COUNT>
3

> <PUBCHEM_ATOM_UDEF_STEREO_COUNT>
0

> <PUBCHEM_BOND_DEF_STEREO_COUNT>
0

> <PUBCHEM_BOND_UDEF_STEREO_COUNT>
0

> <PUBCHEM_ISOTOPIC_ATOM_COUNT>
0

> <PUBCHEM_COMPONENT_COUNT>
1

> <PUBCHEM_CACTVS_TAUTO_COUNT>
-1

> <PUBCHEM_COORDINATE_TYPE>
1
5
255

> <PUBCHEM_BONDANNOTATIONS>
7  1  6
10  14  8
10  17  8
13  21  8
14  22  8
17  23  8
18  24  8
11  2  5
21  26  8
22  25  8
23  25  8
24  26  8
8  27  5
9  13  8
9  18  8

$$$$
