24894117
  -OEChem-03202506562D

 47 50  0     0  0  0  0  0  0999 V2000
    6.7523    2.5142    0.0000 O   0  0  0  0  0  0  0  0  0  0  0  0
    9.3850    0.5597    0.0000 O   0  0  0  0  0  0  0  0  0  0  0  0
    7.3440   -2.2393    0.0000 O   0  0  0  0  0  0  0  0  0  0  0  0
    9.1725   -1.4289    0.0000 O   0  0  0  0  0  0  0  0  0  0  0  0
    4.9917    2.2384    0.0000 N   0  0  0  0  0  0  0  0  0  0  0  0
    4.6783   -1.9396    0.0000 N   0  0  0  0  0  0  0  0  0  0  0  0
    4.9889    0.6204    0.0000 C   0  0  0  0  0  0  0  0  0  0  0  0
    4.6783   -0.3301    0.0000 C   0  0  0  0  0  0  0  0  0  0  0  0
    5.9405    0.9278    0.0000 C   0  0  0  0  0  0  0  0  0  0  0  0
    4.4026    1.4304    0.0000 C   0  0  0  0  0  0  0  0  0  0  0  0
    3.7320   -0.6348    0.0000 C   0  0  0  0  0  0  0  0  0  0  0  0
    6.7485    0.3386    0.0000 C   0  0  0  0  0  0  0  0  0  0  0  0
    5.9422    1.9278    0.0000 C   0  0  0  0  0  0  0  0  0  0  0  0
    3.7320   -1.6348    0.0000 C   0  0  0  0  0  0  0  0  0  0  0  0
    5.2619   -1.1348    0.0000 C   0  0  0  0  0  0  0  0  0  0  0  0
    2.8660   -0.1348    0.0000 C   0  0  0  0  0  0  0  0  0  0  0  0
    6.6423   -0.6557    0.0000 C   0  0  0  0  0  0  0  0  0  0  0  0
    7.6628    0.7438    0.0000 C   0  0  0  0  0  0  0  0  0  0  0  0
    2.8660   -2.1348    0.0000 C   0  0  0  0  0  0  0  0  0  0  0  0
    8.4708    0.1546    0.0000 C   0  0  0  0  0  0  0  0  0  0  0  0
    7.4503   -1.2449    0.0000 C   0  0  0  0  0  0  0  0  0  0  0  0
    8.3645   -0.8398    0.0000 C   0  0  0  0  0  0  0  0  0  0  0  0
    2.0000   -0.6348    0.0000 C   0  0  0  0  0  0  0  0  0  0  0  0
    2.0000   -1.6348    0.0000 C   0  0  0  0  0  0  0  0  0  0  0  0
    9.4913    1.5541    0.0000 C   0  0  0  0  0  0  0  0  0  0  0  0
    8.1520   -2.8284    0.0000 C   0  0  0  0  0  0  0  0  0  0  0  0
   10.0868   -1.0238    0.0000 C   0  0  0  0  0  0  0  0  0  0  0  0
    3.9425    1.8461    0.0000 H   0  0  0  0  0  0  0  0  0  0  0  0
    3.9411    1.0164    0.0000 H   0  0  0  0  0  0  0  0  0  0  0  0
    4.8012    2.8284    0.0000 H   0  0  0  0  0  0  0  0  0  0  0  0
    5.8819   -1.1348    0.0000 H   0  0  0  0  0  0  0  0  0  0  0  0
    4.8709   -2.5289    0.0000 H   0  0  0  0  0  0  0  0  0  0  0  0
    2.8660    0.4852    0.0000 H   0  0  0  0  0  0  0  0  0  0  0  0
    6.0754   -0.9069    0.0000 H   0  0  0  0  0  0  0  0  0  0  0  0
    7.7286    1.3602    0.0000 H   0  0  0  0  0  0  0  0  0  0  0  0
    2.8660   -2.7548    0.0000 H   0  0  0  0  0  0  0  0  0  0  0  0
    1.4631   -0.3248    0.0000 H   0  0  0  0  0  0  0  0  0  0  0  0
    1.4631   -1.9448    0.0000 H   0  0  0  0  0  0  0  0  0  0  0  0
   10.1078    1.4882    0.0000 H   0  0  0  0  0  0  0  0  0  0  0  0
    9.5571    2.1706    0.0000 H   0  0  0  0  0  0  0  0  0  0  0  0
    8.8748    1.6200    0.0000 H   0  0  0  0  0  0  0  0  0  0  0  0
    7.7867   -3.3294    0.0000 H   0  0  0  0  0  0  0  0  0  0  0  0
    8.6530   -3.1937    0.0000 H   0  0  0  0  0  0  0  0  0  0  0  0
    8.5173   -2.3275    0.0000 H   0  0  0  0  0  0  0  0  0  0  0  0
   10.3380   -1.5906    0.0000 H   0  0  0  0  0  0  0  0  0  0  0  0
   10.6536   -0.7726    0.0000 H   0  0  0  0  0  0  0  0  0  0  0  0
    9.8356   -0.4570    0.0000 H   0  0  0  0  0  0  0  0  0  0  0  0
  1 13  2  0  0  0  0
  2 20  1  0  0  0  0
  2 25  1  0  0  0  0
  3 21  1  0  0  0  0
  3 26  1  0  0  0  0
  4 22  1  0  0  0  0
  4 27  1  0  0  0  0
  5 10  1  0  0  0  0
  5 13  1  0  0  0  0
  5 30  1  0  0  0  0
  6 14  1  0  0  0  0
  6 15  1  0  0  0  0
  6 32  1  0  0  0  0
  7  8  1  0  0  0  0
  7  9  2  0  0  0  0
  7 10  1  0  0  0  0
  8 11  1  0  0  0  0
  8 15  2  0  0  0  0
  9 12  1  0  0  0  0
  9 13  1  0  0  0  0
 10 28  1  0  0  0  0
 10 29  1  0  0  0  0
 11 14  1  0  0  0  0
 11 16  2  0  0  0  0
 12 17  2  0  0  0  0
 12 18  1  0  0  0  0
 14 19  2  0  0  0  0
 15 31  1  0  0  0  0
 16 23  1  0  0  0  0
 16 33  1  0  0  0  0
 17 21  1  0  0  0  0
 17 34  1  0  0  0  0
 18 20  2  0  0  0  0
 18 35  1  0  0  0  0
 19 24  1  0  0  0  0
 19 36  1  0  0  0  0
 20 22  1  0  0  0  0
 21 22  2  0  0  0  0
 23 24  2  0  0  0  0
 23 37  1  0  0  0  0
 24 38  1  0  0  0  0
 25 39  1  0  0  0  0
 25 40  1  0  0  0  0
 25 41  1  0  0  0  0
 26 42  1  0  0  0  0
 26 43  1  0  0  0  0
 26 44  1  0  0  0  0
 27 45  1  0  0  0  0
 27 46  1  0  0  0  0
 27 47  1  0  0  0  0
M  END
> <PUBCHEM_COMPOUND_CID>
24894117

> <PUBCHEM_COMPOUND_CANONICALIZED>
1

> <PUBCHEM_CACTVS_COMPLEXITY>
579

> <PUBCHEM_CACTVS_HBOND_ACCEPTOR>
4

> <PUBCHEM_CACTVS_HBOND_DONOR>
2

> <PUBCHEM_CACTVS_ROTATABLE_BOND>
5

> <PUBCHEM_CACTVS_SUBSKEYS>
AAADceB7OAAAAAAAAAAAAAAAAAAAAWIAAAAwYAAAAAAAAFgB9AAAHgAQAAAADAzBngY+xvLJlACoAzV3VACCiCAxIiAI2aE+7NgNJ/LEtZuEMCpl1hXK6QeY/P7OoAABCAACQABAAAIQAASAAAAAAAAAAA==

> <PUBCHEM_IUPAC_OPENEYE_NAME>
3-(1H-indol-3-yl)-4-(3,4,5-trimethoxyphenyl)-1,2-dihydropyrrol-5-one

> <PUBCHEM_IUPAC_CAS_NAME>
3-(1H-indol-3-yl)-4-(3,4,5-trimethoxyphenyl)-1,2-dihydropyrrol-5-one

> <PUBCHEM_IUPAC_NAME_MARKUP>
3-(1<I>H</I>-indol-3-yl)-4-(3,4,5-trimethoxyphenyl)-1,2-dihydropyrrol-5-one

> <PUBCHEM_IUPAC_NAME>
3-(1H-indol-3-yl)-4-(3,4,5-trimethoxyphenyl)-1,2-dihydropyrrol-5-one

> <PUBCHEM_IUPAC_SYSTEMATIC_NAME>
3-(1H-indol-3-yl)-4-(3,4,5-trimethoxyphenyl)-1,2-dihydropyrrol-5-one

> <PUBCHEM_IUPAC_TRADITIONAL_NAME>
4-(1H-indol-3-yl)-3-(3,4,5-trimethoxyphenyl)-3-pyrrolin-2-one

> <PUBCHEM_IUPAC_INCHI>
InChI=1S/C21H20N2O4/c1-25-17-8-12(9-18(26-2)20(17)27-3)19-15(11-23-21(19)24)14-10-22-16-7-5-4-6-13(14)16/h4-10,22H,11H2,1-3H3,(H,23,24)

> <PUBCHEM_IUPAC_INCHIKEY>
YTFRDKYCZHOSMM-UHFFFAOYSA-N

> <PUBCHEM_XLOGP3_AA>
2.5

> <PUBCHEM_EXACT_MASS>
364.14230712

> <PUBCHEM_MOLECULAR_FORMULA>
C21H20N2O4

> <PUBCHEM_MOLECULAR_WEIGHT>
364.4

> <PUBCHEM_SMILES>
COC1=CC(=CC(=C1OC)OC)C2=C(CNC2=O)C3=CNC4=CC=CC=C43

> <PUBCHEM_OPENEYE_CAN_SMILES>
COC1=CC(=CC(=C1OC)OC)C2=C(CNC2=O)C3=CNC4=CC=CC=C43

> <PUBCHEM_OPENEYE_ISO_SMILES>
COC1=CC(=CC(=C1OC)OC)C2=C(CNC2=O)C3=CNC4=CC=CC=C43

> <PUBCHEM_CACTVS_TPSA>
72.6

> <PUBCHEM_MONOISOTOPIC_WEIGHT>
364.14230712

> <PUBCHEM_TOTAL_CHARGE>
0

> <PUBCHEM_HEAVY_ATOM_COUNT>
27

> <PUBCHEM_ATOM_DEF_STEREO_COUNT>
0

> <PUBCHEM_ATOM_UDEF_STEREO_COUNT>
0

> <PUBCHEM_BOND_DEF_STEREO_COUNT>
0

> <PUBCHEM_BOND_UDEF_STEREO_COUNT>
0

> <PUBCHEM_ISOTOPIC_ATOM_COUNT>
0

> <PUBCHEM_COMPONENT_COUNT>
1

> <PUBCHEM_CACTVS_TAUTO_COUNT>
-1

> <PUBCHEM_COORDINATE_TYPE>
1
5
255

> <PUBCHEM_BONDANNOTATIONS>
11  14  8
11  16  8
12  17  8
12  18  8
14  19  8
16  23  8
17  21  8
18  20  8
19  24  8
20  22  8
21  22  8
23  24  8
6  14  8
6  15  8
8  11  8
8  15  8

$$$$
