9891182
  -OEChem-03192523352D

 52 54  0     0  0  0  0  0  0999 V2000
    4.5981   -3.9050    0.0000 O   0  0  0  0  0  0  0  0  0  0  0  0
    8.0622   -3.9050    0.0000 O   0  0  0  0  0  0  0  0  0  0  0  0
    6.3301   -4.9050    0.0000 O   0  0  0  0  0  0  0  0  0  0  0  0
    3.7320    3.5950    0.0000 O   0  0  0  0  0  0  0  0  0  0  0  0
    2.0000    0.5950    0.0000 O   0  5  0  0  0  0  0  0  0  0  0  0
    2.8660    2.0950    0.0000 O   0  0  0  0  0  0  0  0  0  0  0  0
    6.3301   -0.9050    0.0000 N   0  0  0  0  0  0  0  0  0  0  0  0
    4.5981    2.0950    0.0000 N   0  0  0  0  0  0  0  0  0  0  0  0
    5.4641    0.5950    0.0000 N   0  0  0  0  0  0  0  0  0  0  0  0
    4.5981   -0.9050    0.0000 N   0  0  0  0  0  0  0  0  0  0  0  0
    2.8660    1.0950    0.0000 N   0  3  0  0  0  0  0  0  0  0  0  0
    4.5981    5.0950    0.0000 N   0  0  0  0  0  0  0  0  0  0  0  0
    6.3301   -1.9050    0.0000 C   0  0  0  0  0  0  0  0  0  0  0  0
    7.1962   -2.4050    0.0000 C   0  0  0  0  0  0  0  0  0  0  0  0
    5.4641   -2.4050    0.0000 C   0  0  0  0  0  0  0  0  0  0  0  0
    5.4641   -3.4050    0.0000 C   0  0  0  0  0  0  0  0  0  0  0  0
    7.1962   -3.4050    0.0000 C   0  0  0  0  0  0  0  0  0  0  0  0
    6.3301   -3.9050    0.0000 C   0  0  0  0  0  0  0  0  0  0  0  0
    5.4641    2.5950    0.0000 C   0  0  0  0  0  0  0  0  0  0  0  0
    4.5981    1.0950    0.0000 C   0  0  0  0  0  0  0  0  0  0  0  0
    5.4641   -0.4050    0.0000 C   0  0  0  0  0  0  0  0  0  0  0  0
    5.4641    3.5950    0.0000 C   0  0  0  0  0  0  0  0  0  0  0  0
    3.7320    0.5950    0.0000 C   0  0  0  0  0  0  0  0  0  0  0  0
    6.3301    2.0950    0.0000 C   0  0  0  0  0  0  0  0  0  0  0  0
    6.3301    4.0950    0.0000 C   0  0  0  0  0  0  0  0  0  0  0  0
    3.7320   -0.4050    0.0000 C   0  0  0  0  0  0  0  0  0  0  0  0
    7.1962    2.5950    0.0000 C   0  0  0  0  0  0  0  0  0  0  0  0
    7.1962    3.5950    0.0000 C   0  0  0  0  0  0  0  0  0  0  0  0
    4.5981    4.0950    0.0000 C   0  0  0  0  0  0  0  0  0  0  0  0
    7.1962   -5.4050    0.0000 C   0  0  0  0  0  0  0  0  0  0  0  0
    4.5981   -4.9050    0.0000 C   0  0  0  0  0  0  0  0  0  0  0  0
    8.9282   -3.4050    0.0000 C   0  0  0  0  0  0  0  0  0  0  0  0
    7.7331   -2.0950    0.0000 H   0  0  0  0  0  0  0  0  0  0  0  0
    4.9272   -2.0950    0.0000 H   0  0  0  0  0  0  0  0  0  0  0  0
    6.8671   -0.5950    0.0000 H   0  0  0  0  0  0  0  0  0  0  0  0
    4.0611    2.4050    0.0000 H   0  0  0  0  0  0  0  0  0  0  0  0
    6.3301    1.4750    0.0000 H   0  0  0  0  0  0  0  0  0  0  0  0
    6.3301    4.7150    0.0000 H   0  0  0  0  0  0  0  0  0  0  0  0
    3.1951   -0.7150    0.0000 H   0  0  0  0  0  0  0  0  0  0  0  0
    7.7331    2.2850    0.0000 H   0  0  0  0  0  0  0  0  0  0  0  0
    7.7331    3.9050    0.0000 H   0  0  0  0  0  0  0  0  0  0  0  0
    6.8862   -5.9419    0.0000 H   0  0  0  0  0  0  0  0  0  0  0  0
    7.7331   -5.7150    0.0000 H   0  0  0  0  0  0  0  0  0  0  0  0
    7.5062   -4.8681    0.0000 H   0  0  0  0  0  0  0  0  0  0  0  0
    3.9781   -4.9050    0.0000 H   0  0  0  0  0  0  0  0  0  0  0  0
    4.5981   -5.5250    0.0000 H   0  0  0  0  0  0  0  0  0  0  0  0
    5.2181   -4.9050    0.0000 H   0  0  0  0  0  0  0  0  0  0  0  0
    9.2382   -3.9419    0.0000 H   0  0  0  0  0  0  0  0  0  0  0  0
    9.4651   -3.0950    0.0000 H   0  0  0  0  0  0  0  0  0  0  0  0
    8.6182   -2.8681    0.0000 H   0  0  0  0  0  0  0  0  0  0  0  0
    5.1350    5.4050    0.0000 H   0  0  0  0  0  0  0  0  0  0  0  0
    4.0611    5.4050    0.0000 H   0  0  0  0  0  0  0  0  0  0  0  0
  1 16  1  0  0  0  0
  1 31  1  0  0  0  0
  2 17  1  0  0  0  0
  2 32  1  0  0  0  0
  3 18  1  0  0  0  0
  3 30  1  0  0  0  0
  4 29  2  0  0  0  0
  5 11  1  0  0  0  0
  6 11  2  0  0  0  0
  7 13  1  0  0  0  0
  7 21  1  0  0  0  0
  7 35  1  0  0  0  0
  8 19  1  0  0  0  0
  8 20  1  0  0  0  0
  8 36  1  0  0  0  0
  9 20  2  0  0  0  0
  9 21  1  0  0  0  0
 10 21  2  0  0  0  0
 10 26  1  0  0  0  0
 11 23  1  0  0  0  0
 12 29  1  0  0  0  0
 12 51  1  0  0  0  0
 12 52  1  0  0  0  0
 13 14  2  0  0  0  0
 13 15  1  0  0  0  0
 14 17  1  0  0  0  0
 14 33  1  0  0  0  0
 15 16  2  0  0  0  0
 15 34  1  0  0  0  0
 16 18  1  0  0  0  0
 17 18  2  0  0  0  0
 19 22  1  0  0  0  0
 19 24  2  0  0  0  0
 20 23  1  0  0  0  0
 22 25  2  0  0  0  0
 22 29  1  0  0  0  0
 23 26  2  0  0  0  0
 24 27  1  0  0  0  0
 24 37  1  0  0  0  0
 25 28  1  0  0  0  0
 25 38  1  0  0  0  0
 26 39  1  0  0  0  0
 27 28  2  0  0  0  0
 27 40  1  0  0  0  0
 28 41  1  0  0  0  0
 30 42  1  0  0  0  0
 30 43  1  0  0  0  0
 30 44  1  0  0  0  0
 31 45  1  0  0  0  0
 31 46  1  0  0  0  0
 31 47  1  0  0  0  0
 32 48  1  0  0  0  0
 32 49  1  0  0  0  0
 32 50  1  0  0  0  0
M  CHG  2   5  -1  11   1
M  END
> <PUBCHEM_COMPOUND_CID>
9891182

> <PUBCHEM_COMPOUND_CANONICALIZED>
1

> <PUBCHEM_CACTVS_COMPLEXITY>
622

> <PUBCHEM_CACTVS_HBOND_ACCEPTOR>
10

> <PUBCHEM_CACTVS_HBOND_DONOR>
3

> <PUBCHEM_CACTVS_ROTATABLE_BOND>
8

> <PUBCHEM_CACTVS_SUBSKEYS>
AAADceB7uAAAAAAAAAAAAAAAAAAAAAAAAAA8YIAAAAAAAAAB0AAAHgAUAAAADAzBmgY/9pbYVACpAjd3dwCCiCk1MqAp2CEu/NqNb/rE/duUNapv0J/K6ee4+A+OAEAACgACQAAAgAAUAASAAAAAAAAAAA==

> <PUBCHEM_IUPAC_OPENEYE_NAME>
2-[[5-nitro-2-(3,4,5-trimethoxyanilino)pyrimidin-4-yl]amino]benzamide

> <PUBCHEM_IUPAC_CAS_NAME>
2-[[5-nitro-2-(3,4,5-trimethoxyanilino)-4-pyrimidinyl]amino]benzamide

> <PUBCHEM_IUPAC_NAME_MARKUP>
2-[[5-nitro-2-(3,4,5-trimethoxyanilino)pyrimidin-4-yl]amino]benzamide

> <PUBCHEM_IUPAC_NAME>
2-[[5-nitro-2-(3,4,5-trimethoxyanilino)pyrimidin-4-yl]amino]benzamide

> <PUBCHEM_IUPAC_SYSTEMATIC_NAME>
2-[[5-nitro-2-[(3,4,5-trimethoxyphenyl)amino]pyrimidin-4-yl]amino]benzamide

> <PUBCHEM_IUPAC_TRADITIONAL_NAME>
2-[[5-nitro-2-(3,4,5-trimethoxyanilino)pyrimidin-4-yl]amino]benzamide

> <PUBCHEM_IUPAC_INCHI>
InChI=1S/C20H20N6O6/c1-30-15-8-11(9-16(31-2)17(15)32-3)23-20-22-10-14(26(28)29)19(25-20)24-13-7-5-4-6-12(13)18(21)27/h4-10H,1-3H3,(H2,21,27)(H2,22,23,24,25)

> <PUBCHEM_IUPAC_INCHIKEY>
FLEAYYMORDPWAJ-UHFFFAOYSA-N

> <PUBCHEM_XLOGP3_AA>
3.1

> <PUBCHEM_EXACT_MASS>
440.14443238

> <PUBCHEM_MOLECULAR_FORMULA>
C20H20N6O6

> <PUBCHEM_MOLECULAR_WEIGHT>
440.4

> <PUBCHEM_SMILES>
COC1=CC(=CC(=C1OC)OC)NC2=NC=C(C(=N2)NC3=CC=CC=C3C(=O)N)[N+](=O)[O-]

> <PUBCHEM_OPENEYE_CAN_SMILES>
COC1=CC(=CC(=C1OC)OC)NC2=NC=C(C(=N2)NC3=CC=CC=C3C(=O)N)[N+](=O)[O-]

> <PUBCHEM_OPENEYE_ISO_SMILES>
COC1=CC(=CC(=C1OC)OC)NC2=NC=C(C(=N2)NC3=CC=CC=C3C(=O)N)[N+](=O)[O-]

> <PUBCHEM_CACTVS_TPSA>
166

> <PUBCHEM_MONOISOTOPIC_WEIGHT>
440.14443238

> <PUBCHEM_TOTAL_CHARGE>
0

> <PUBCHEM_HEAVY_ATOM_COUNT>
32

> <PUBCHEM_ATOM_DEF_STEREO_COUNT>
0

> <PUBCHEM_ATOM_UDEF_STEREO_COUNT>
0

> <PUBCHEM_BOND_DEF_STEREO_COUNT>
0

> <PUBCHEM_BOND_UDEF_STEREO_COUNT>
0

> <PUBCHEM_ISOTOPIC_ATOM_COUNT>
0

> <PUBCHEM_COMPONENT_COUNT>
1

> <PUBCHEM_CACTVS_TAUTO_COUNT>
-1

> <PUBCHEM_COORDINATE_TYPE>
1
5
255

> <PUBCHEM_BONDANNOTATIONS>
10  21  8
10  26  8
13  14  8
13  15  8
14  17  8
15  16  8
16  18  8
17  18  8
19  22  8
19  24  8
20  23  8
22  25  8
23  26  8
24  27  8
25  28  8
27  28  8
9  20  8
9  21  8

$$$$
