447721
  -OEChem-03202505222D

 66 70  0     1  0  0  0  0  0999 V2000
    4.3785    4.4770    0.0000 F   0  0  0  0  0  0  0  0  0  0  0  0
    5.7907    4.4029    0.0000 F   0  0  0  0  0  0  0  0  0  0  0  0
    5.7167    2.9907    0.0000 F   0  0  0  0  0  0  0  0  0  0  0  0
    2.5878   -3.9106    0.0000 N   0  0  0  0  0  0  0  0  0  0  0  0
    4.7861   -0.9620    0.0000 N   0  0  0  0  0  0  0  0  0  0  0  0
    3.3080   -0.3039    0.0000 N   0  0  0  0  0  0  0  0  0  0  0  0
    6.6227    0.0325    0.0000 N   0  0  0  0  0  0  0  0  0  0  0  0
    8.3548    0.0325    0.0000 N   0  0  0  0  0  0  0  0  0  0  0  0
    7.4888    1.5325    0.0000 N   0  0  0  0  0  0  0  0  0  0  0  0
    3.4013   -2.0835    0.0000 C   0  0  0  0  0  0  0  0  0  0  0  0
    3.9890   -2.8925    0.0000 C   0  0  0  0  0  0  0  0  0  0  0  0
    2.4067   -2.1880    0.0000 C   0  0  0  0  0  0  0  0  0  0  0  0
    3.5823   -3.8060    0.0000 C   0  0  0  0  0  0  0  0  0  0  0  0
    2.0000   -3.1015    0.0000 C   0  0  0  0  0  0  0  0  0  0  0  0
    3.8080   -1.1699    0.0000 C   0  0  0  0  0  0  0  0  0  0  0  0
    4.8907    0.0325    0.0000 C   0  0  0  0  0  0  0  0  0  0  0  0
    3.9771    0.4393    0.0000 C   0  0  0  0  0  0  0  0  0  0  0  0
    5.5293   -1.6311    0.0000 C   0  0  0  0  0  0  0  0  0  0  0  0
    5.7567    0.5325    0.0000 C   0  0  0  0  0  0  0  0  0  0  0  0
    3.7692    1.4174    0.0000 C   0  0  0  0  0  0  0  0  0  0  0  0
    4.5124    2.0865    0.0000 C   0  0  0  0  0  0  0  0  0  0  0  0
    2.8182    1.7264    0.0000 C   0  0  0  0  0  0  0  0  0  0  0  0
    5.7567    1.5325    0.0000 C   0  0  0  0  0  0  0  0  0  0  0  0
    4.3044    3.0647    0.0000 C   0  0  0  0  0  0  0  0  0  0  0  0
    7.4888    0.5325    0.0000 C   0  0  0  0  0  0  0  0  0  0  0  0
    2.6102    2.7046    0.0000 C   0  0  0  0  0  0  0  0  0  0  0  0
    9.2208    0.5325    0.0000 C   0  0  2  0  0  0  0  0  0  0  0  0
    6.6227    2.0325    0.0000 C   0  0  0  0  0  0  0  0  0  0  0  0
    3.3534    3.3737    0.0000 C   0  0  0  0  0  0  0  0  0  0  0  0
    5.0476    3.7338    0.0000 C   0  0  0  0  0  0  0  0  0  0  0  0
   10.0868    0.0325    0.0000 C   0  0  0  0  0  0  0  0  0  0  0  0
    9.2208    1.5325    0.0000 C   0  0  0  0  0  0  0  0  0  0  0  0
   10.9528    0.5325    0.0000 C   0  0  0  0  0  0  0  0  0  0  0  0
   10.0868   -0.9675    0.0000 C   0  0  0  0  0  0  0  0  0  0  0  0
   11.8189    0.0325    0.0000 C   0  0  0  0  0  0  0  0  0  0  0  0
   10.9528   -1.4675    0.0000 C   0  0  0  0  0  0  0  0  0  0  0  0
   11.8189   -0.9675    0.0000 C   0  0  0  0  0  0  0  0  0  0  0  0
    4.0179   -2.0187    0.0000 H   0  0  0  0  0  0  0  0  0  0  0  0
    4.5030   -3.2392    0.0000 H   0  0  0  0  0  0  0  0  0  0  0  0
    4.4197   -2.4465    0.0000 H   0  0  0  0  0  0  0  0  0  0  0  0
    2.4500   -1.5695    0.0000 H   0  0  0  0  0  0  0  0  0  0  0  0
    1.8052   -2.0380    0.0000 H   0  0  0  0  0  0  0  0  0  0  0  0
    3.5391   -4.4245    0.0000 H   0  0  0  0  0  0  0  0  0  0  0  0
    4.1839   -3.9560    0.0000 H   0  0  0  0  0  0  0  0  0  0  0  0
    1.4860   -2.7548    0.0000 H   0  0  0  0  0  0  0  0  0  0  0  0
    1.5693   -3.5475    0.0000 H   0  0  0  0  0  0  0  0  0  0  0  0
    2.3356   -4.4770    0.0000 H   0  0  0  0  0  0  0  0  0  0  0  0
    5.1144   -2.0919    0.0000 H   0  0  0  0  0  0  0  0  0  0  0  0
    5.9900   -2.0460    0.0000 H   0  0  0  0  0  0  0  0  0  0  0  0
    5.9441   -1.1704    0.0000 H   0  0  0  0  0  0  0  0  0  0  0  0
    5.1020    1.8949    0.0000 H   0  0  0  0  0  0  0  0  0  0  0  0
    2.3574    1.3116    0.0000 H   0  0  0  0  0  0  0  0  0  0  0  0
    5.2198    1.8425    0.0000 H   0  0  0  0  0  0  0  0  0  0  0  0
    2.0206    2.8962    0.0000 H   0  0  0  0  0  0  0  0  0  0  0  0
    9.2208   -0.0875    0.0000 H   0  0  0  0  0  0  0  0  0  0  0  0
    6.6227    2.6525    0.0000 H   0  0  0  0  0  0  0  0  0  0  0  0
    3.2245    3.9802    0.0000 H   0  0  0  0  0  0  0  0  0  0  0  0
    8.3548   -0.5875    0.0000 H   0  0  0  0  0  0  0  0  0  0  0  0
    9.8408    1.5325    0.0000 H   0  0  0  0  0  0  0  0  0  0  0  0
    9.2208    2.1525    0.0000 H   0  0  0  0  0  0  0  0  0  0  0  0
    8.6008    1.5325    0.0000 H   0  0  0  0  0  0  0  0  0  0  0  0
   10.9528    1.1525    0.0000 H   0  0  0  0  0  0  0  0  0  0  0  0
    9.5499   -1.2775    0.0000 H   0  0  0  0  0  0  0  0  0  0  0  0
   12.3558    0.3425    0.0000 H   0  0  0  0  0  0  0  0  0  0  0  0
   10.9528   -2.0875    0.0000 H   0  0  0  0  0  0  0  0  0  0  0  0
   12.3558   -1.2775    0.0000 H   0  0  0  0  0  0  0  0  0  0  0  0
  1 30  1  0  0  0  0
  2 30  1  0  0  0  0
  3 30  1  0  0  0  0
  4 13  1  0  0  0  0
  4 14  1  0  0  0  0
  4 47  1  0  0  0  0
  5 15  1  0  0  0  0
  5 16  1  0  0  0  0
  5 18  1  0  0  0  0
  6 15  2  0  0  0  0
  6 17  1  0  0  0  0
  7 19  2  0  0  0  0
  7 25  1  0  0  0  0
  8 25  1  0  0  0  0
 27  8  1  1  0  0  0
  8 58  1  0  0  0  0
  9 25  2  0  0  0  0
  9 28  1  0  0  0  0
 10 11  1  0  0  0  0
 10 12  1  0  0  0  0
 10 15  1  0  0  0  0
 10 38  1  0  0  0  0
 11 13  1  0  0  0  0
 11 39  1  0  0  0  0
 11 40  1  0  0  0  0
 12 14  1  0  0  0  0
 12 41  1  0  0  0  0
 12 42  1  0  0  0  0
 13 43  1  0  0  0  0
 13 44  1  0  0  0  0
 14 45  1  0  0  0  0
 14 46  1  0  0  0  0
 16 17  2  0  0  0  0
 16 19  1  0  0  0  0
 17 20  1  0  0  0  0
 18 48  1  0  0  0  0
 18 49  1  0  0  0  0
 18 50  1  0  0  0  0
 19 23  1  0  0  0  0
 20 21  2  0  0  0  0
 20 22  1  0  0  0  0
 21 24  1  0  0  0  0
 21 51  1  0  0  0  0
 22 26  2  0  0  0  0
 22 52  1  0  0  0  0
 23 28  2  0  0  0  0
 23 53  1  0  0  0  0
 24 29  2  0  0  0  0
 24 30  1  0  0  0  0
 26 29  1  0  0  0  0
 26 54  1  0  0  0  0
 27 31  1  0  0  0  0
 27 32  1  0  0  0  0
 27 55  1  0  0  0  0
 28 56  1  0  0  0  0
 29 57  1  0  0  0  0
 31 33  2  0  0  0  0
 31 34  1  0  0  0  0
 32 59  1  0  0  0  0
 32 60  1  0  0  0  0
 32 61  1  0  0  0  0
 33 35  1  0  0  0  0
 33 62  1  0  0  0  0
 34 36  2  0  0  0  0
 34 63  1  0  0  0  0
 35 37  2  0  0  0  0
 35 64  1  0  0  0  0
 36 37  1  0  0  0  0
 36 65  1  0  0  0  0
 37 66  1  0  0  0  0
M  END
> <PUBCHEM_COMPOUND_CID>
447721

> <PUBCHEM_COMPOUND_CANONICALIZED>
1

> <PUBCHEM_CACTVS_COMPLEXITY>
711

> <PUBCHEM_CACTVS_HBOND_ACCEPTOR>
8

> <PUBCHEM_CACTVS_HBOND_DONOR>
2

> <PUBCHEM_CACTVS_ROTATABLE_BOND>
6

> <PUBCHEM_CACTVS_SUBSKEYS>
AAADceB7gYAAAAAAAAAAAAAAAAAAAWAAAAA8eIEAAAAAAAAB9AAAHQAQAAAADSjBHxQ/kJfMEACgAzZnZACCgC0xEqAJ2KA4dJiIaKLA2dGUJAhokALIyCcQgMAOAAACAAAAAAAAAAQAAAAAAAAAAAAAAA==

> <PUBCHEM_IUPAC_OPENEYE_NAME>
4-[3-methyl-2-(4-piperidyl)-5-[3-(trifluoromethyl)phenyl]imidazol-4-yl]-N-[(1S)-1-phenylethyl]pyrimidin-2-amine

> <PUBCHEM_IUPAC_CAS_NAME>
4-[3-methyl-2-(4-piperidinyl)-5-[3-(trifluoromethyl)phenyl]-4-imidazolyl]-N-[(1S)-1-phenylethyl]-2-pyrimidinamine

> <PUBCHEM_IUPAC_NAME_MARKUP>
4-[3-methyl-2-piperidin-4-yl-5-[3-(trifluoromethyl)phenyl]imidazol-4-yl]-<I>N</I>-[(1<I>S</I>)-1-phenylethyl]pyrimidin-2-amine

> <PUBCHEM_IUPAC_NAME>
4-[3-methyl-2-piperidin-4-yl-5-[3-(trifluoromethyl)phenyl]imidazol-4-yl]-N-[(1S)-1-phenylethyl]pyrimidin-2-amine

> <PUBCHEM_IUPAC_SYSTEMATIC_NAME>
4-[3-methyl-2-piperidin-4-yl-5-[3-(trifluoromethyl)phenyl]imidazol-4-yl]-N-[(1S)-1-phenylethyl]pyrimidin-2-amine

> <PUBCHEM_IUPAC_TRADITIONAL_NAME>
[4-[3-methyl-2-(4-piperidyl)-5-[3-(trifluoromethyl)phenyl]imidazol-4-yl]pyrimidin-2-yl]-[(1S)-1-phenylethyl]amine

> <PUBCHEM_IUPAC_INCHI>
InChI=1S/C28H29F3N6/c1-18(19-7-4-3-5-8-19)34-27-33-16-13-23(35-27)25-24(21-9-6-10-22(17-21)28(29,30)31)36-26(37(25)2)20-11-14-32-15-12-20/h3-10,13,16-18,20,32H,11-12,14-15H2,1-2H3,(H,33,34,35)/t18-/m0/s1

> <PUBCHEM_IUPAC_INCHIKEY>
QICPQLFMWYQJGX-SFHVURJKSA-N

> <PUBCHEM_XLOGP3_AA>
4.9

> <PUBCHEM_EXACT_MASS>
506.24057944

> <PUBCHEM_MOLECULAR_FORMULA>
C28H29F3N6

> <PUBCHEM_MOLECULAR_WEIGHT>
506.6

> <PUBCHEM_SMILES>
C[C@@H](C1=CC=CC=C1)NC2=NC=CC(=N2)C3=C(N=C(N3C)C4CCNCC4)C5=CC(=CC=C5)C(F)(F)F

> <PUBCHEM_OPENEYE_CAN_SMILES>
CC(C1=CC=CC=C1)NC2=NC=CC(=N2)C3=C(N=C(N3C)C4CCNCC4)C5=CC(=CC=C5)C(F)(F)F

> <PUBCHEM_OPENEYE_ISO_SMILES>
C[C@@H](C1=CC=CC=C1)NC2=NC=CC(=N2)C3=C(N=C(N3C)C4CCNCC4)C5=CC(=CC=C5)C(F)(F)F

> <PUBCHEM_CACTVS_TPSA>
67.7

> <PUBCHEM_MONOISOTOPIC_WEIGHT>
506.24057944

> <PUBCHEM_TOTAL_CHARGE>
0

> <PUBCHEM_HEAVY_ATOM_COUNT>
37

> <PUBCHEM_ATOM_DEF_STEREO_COUNT>
1

> <PUBCHEM_ATOM_UDEF_STEREO_COUNT>
0

> <PUBCHEM_BOND_DEF_STEREO_COUNT>
0

> <PUBCHEM_BOND_UDEF_STEREO_COUNT>
0

> <PUBCHEM_ISOTOPIC_ATOM_COUNT>
0

> <PUBCHEM_COMPONENT_COUNT>
1

> <PUBCHEM_CACTVS_TAUTO_COUNT>
-1

> <PUBCHEM_COORDINATE_TYPE>
1
5
255

> <PUBCHEM_BONDANNOTATIONS>
16  17  8
19  23  8
20  21  8
20  22  8
21  24  8
22  26  8
23  28  8
24  29  8
26  29  8
31  33  8
31  34  8
33  35  8
34  36  8
35  37  8
36  37  8
5  15  8
5  16  8
6  15  8
6  17  8
7  19  8
7  25  8
27  8  5
9  25  8
9  28  8

$$$$
