44378515
  -OEChem-03202506112D

152153  0     1  0  0  0  0  0999 V2000
   10.2645   -4.2270    0.0000 S   0  0  0  0  0  0  0  0  0  0  0  0
    9.7331    0.2730    0.0000 O   0  0  0  0  0  0  0  0  0  0  0  0
   12.4651    2.7730    0.0000 O   0  0  0  0  0  0  0  0  0  0  0  0
    7.0010    2.7730    0.0000 O   0  0  0  0  0  0  0  0  0  0  0  0
   15.1972    0.2730    0.0000 O   0  0  0  0  0  0  0  0  0  0  0  0
    3.4030    1.7730    0.0000 O   0  0  0  0  0  0  0  0  0  0  0  0
    4.2690    0.2730    0.0000 O   0  0  0  0  0  0  0  0  0  0  0  0
   14.7286   -6.7270    0.0000 O   0  0  0  0  0  0  0  0  0  0  0  0
   10.2645   -3.2270    0.0000 O   0  0  0  0  0  0  0  0  0  0  0  0
   11.2645   -4.2270    0.0000 O   0  0  0  0  0  0  0  0  0  0  0  0
   11.9965   -4.2270    0.0000 O   0  0  0  0  0  0  0  0  0  0  0  0
   11.4651    1.2730    0.0000 N   0  0  0  0  0  0  0  0  0  0  0  0
    8.7331    1.7730    0.0000 N   0  0  0  0  0  0  0  0  0  0  0  0
   14.1972    1.7730    0.0000 N   0  0  0  0  0  0  0  0  0  0  0  0
    6.0010    1.2730    0.0000 N   0  0  0  0  0  0  0  0  0  0  0  0
   16.9292    1.2730    0.0000 N   0  0  0  0  0  0  0  0  0  0  0  0
    8.8671    4.7730    0.0000 N   0  0  0  0  0  0  0  0  0  0  0  0
    5.2690   -0.2270    0.0000 N   0  0  0  0  0  0  0  0  0  0  0  0
   15.6972   -1.0930    0.0000 N   0  0  0  0  0  0  0  0  0  0  0  0
   12.9965   -5.7270    0.0000 N   0  0  0  0  0  0  0  0  0  0  0  0
   10.2645   -5.2270    0.0000 N   0  0  0  0  0  0  0  0  0  0  0  0
    3.4030    4.7730    0.0000 N   0  0  0  0  0  0  0  0  0  0  0  0
    6.2645   -4.2270    0.0000 N   0  0  0  0  0  0  0  0  0  0  0  0
    8.0010    6.2730    0.0000 N   0  0  0  0  0  0  0  0  0  0  0  0
    9.7331    6.2730    0.0000 N   0  0  0  0  0  0  0  0  0  0  0  0
    4.4030   -1.7270    0.0000 N   0  0  0  0  0  0  0  0  0  0  0  0
    6.1350   -1.7270    0.0000 N   0  0  0  0  0  0  0  0  0  0  0  0
   17.1972   -1.9590    0.0000 N   0  0  0  0  0  0  0  0  0  0  0  0
   15.6973   -2.8250    0.0000 N   0  0  0  0  0  0  0  0  0  0  0  0
    2.5369    6.2730    0.0000 N   0  0  0  0  0  0  0  0  0  0  0  0
    4.2690    6.2730    0.0000 N   0  0  0  0  0  0  0  0  0  0  0  0
   10.5991    1.7730    0.0000 C   0  0  1  0  0  0  0  0  0  0  0  0
    7.8671    1.2730    0.0000 C   0  0  1  0  0  0  0  0  0  0  0  0
   10.5991    2.7730    0.0000 C   0  0  0  0  0  0  0  0  0  0  0  0
   13.3312    1.2730    0.0000 C   0  0  1  0  0  0  0  0  0  0  0  0
    7.8671    0.2730    0.0000 C   0  0  0  0  0  0  0  0  0  0  0  0
    9.7331    1.2730    0.0000 C   0  0  0  0  0  0  0  0  0  0  0  0
   13.3312    0.2730    0.0000 C   0  0  0  0  0  0  0  0  0  0  0  0
    9.7331    3.2730    0.0000 C   0  0  0  0  0  0  0  0  0  0  0  0
   12.4651    1.7730    0.0000 C   0  0  0  0  0  0  0  0  0  0  0  0
    7.0010   -0.2270    0.0000 C   0  0  0  0  0  0  0  0  0  0  0  0
    7.0010    1.7730    0.0000 C   0  0  0  0  0  0  0  0  0  0  0  0
   14.1972   -0.2270    0.0000 C   0  0  0  0  0  0  0  0  0  0  0  0
    5.1350    1.7730    0.0000 C   0  0  1  0  0  0  0  0  0  0  0  0
    9.7331    4.2730    0.0000 C   0  0  0  0  0  0  0  0  0  0  0  0
    5.1350    2.7730    0.0000 C   0  0  0  0  0  0  0  0  0  0  0  0
    6.1350    0.2730    0.0000 C   0  0  0  0  0  0  0  0  0  0  0  0
   15.1972    1.2730    0.0000 C   0  0  0  0  0  0  0  0  0  0  0  0
   16.0632    1.7730    0.0000 C   0  0  2  0  0  0  0  0  0  0  0  0
   14.6973   -1.0930    0.0000 C   0  0  0  0  0  0  0  0  0  0  0  0
    4.2690    3.2730    0.0000 C   0  0  0  0  0  0  0  0  0  0  0  0
    4.2690    1.2730    0.0000 C   0  0  0  0  0  0  0  0  0  0  0  0
   16.0632    2.7730    0.0000 C   0  0  0  0  0  0  0  0  0  0  0  0
    4.2690    4.2730    0.0000 C   0  0  0  0  0  0  0  0  0  0  0  0
   13.8626   -5.2270    0.0000 C   0  0  2  0  0  0  0  0  0  0  0  0
   14.7286   -5.7270    0.0000 C   0  0  0  0  0  0  0  0  0  0  0  0
   11.1305   -5.7270    0.0000 C   0  0  2  0  0  0  0  0  0  0  0  0
    9.2645   -4.2270    0.0000 C   0  0  0  0  0  0  0  0  0  0  0  0
    8.7645   -5.0930    0.0000 C   0  0  0  0  0  0  0  0  0  0  0  0
    7.7645   -5.0930    0.0000 C   0  0  0  0  0  0  0  0  0  0  0  0
   11.9965   -5.2270    0.0000 C   0  0  0  0  0  0  0  0  0  0  0  0
    7.2645   -4.2270    0.0000 C   0  0  0  0  0  0  0  0  0  0  0  0
   13.8626   -4.2270    0.0000 C   0  0  0  0  0  0  0  0  0  0  0  0
    8.7645   -3.3610    0.0000 C   0  0  0  0  0  0  0  0  0  0  0  0
   11.1305   -6.7270    0.0000 C   0  0  0  0  0  0  0  0  0  0  0  0
    8.8671    5.7730    0.0000 C   0  0  0  0  0  0  0  0  0  0  0  0
    7.7645   -3.3610    0.0000 C   0  0  0  0  0  0  0  0  0  0  0  0
    9.2992   -5.9870    0.0000 C   0  0  0  0  0  0  0  0  0  0  0  0
    5.2690   -1.2270    0.0000 C   0  0  0  0  0  0  0  0  0  0  0  0
    7.2298   -5.9870    0.0000 C   0  0  0  0  0  0  0  0  0  0  0  0
   16.1972   -1.9590    0.0000 C   0  0  0  0  0  0  0  0  0  0  0  0
    8.7853   -6.8930    0.0000 C   0  0  0  0  0  0  0  0  0  0  0  0
    7.7437   -6.8930    0.0000 C   0  0  0  0  0  0  0  0  0  0  0  0
    5.7645   -5.0930    0.0000 C   0  0  0  0  0  0  0  0  0  0  0  0
    5.7645   -3.3610    0.0000 C   0  0  0  0  0  0  0  0  0  0  0  0
    3.4030    5.7730    0.0000 C   0  0  0  0  0  0  0  0  0  0  0  0
   11.1360    2.0830    0.0000 H   0  0  0  0  0  0  0  0  0  0  0  0
    8.4040    0.9630    0.0000 H   0  0  0  0  0  0  0  0  0  0  0  0
   11.2097    2.6654    0.0000 H   0  0  0  0  0  0  0  0  0  0  0  0
   10.8112    3.3556    0.0000 H   0  0  0  0  0  0  0  0  0  0  0  0
   13.8681    0.9630    0.0000 H   0  0  0  0  0  0  0  0  0  0  0  0
    8.0791   -0.3096    0.0000 H   0  0  0  0  0  0  0  0  0  0  0  0
    8.4776    0.3807    0.0000 H   0  0  0  0  0  0  0  0  0  0  0  0
   12.0021    0.9630    0.0000 H   0  0  0  0  0  0  0  0  0  0  0  0
   12.7206    0.3807    0.0000 H   0  0  0  0  0  0  0  0  0  0  0  0
   13.1191   -0.3096    0.0000 H   0  0  0  0  0  0  0  0  0  0  0  0
    9.2700    2.0830    0.0000 H   0  0  0  0  0  0  0  0  0  0  0  0
    9.1225    3.3807    0.0000 H   0  0  0  0  0  0  0  0  0  0  0  0
    9.5210    2.6904    0.0000 H   0  0  0  0  0  0  0  0  0  0  0  0
    6.6025   -0.7019    0.0000 H   0  0  0  0  0  0  0  0  0  0  0  0
    7.3996   -0.7019    0.0000 H   0  0  0  0  0  0  0  0  0  0  0  0
   14.8078   -0.1193    0.0000 H   0  0  0  0  0  0  0  0  0  0  0  0
   13.7588   -0.6654    0.0000 H   0  0  0  0  0  0  0  0  0  0  0  0
   14.7341    2.0830    0.0000 H   0  0  0  0  0  0  0  0  0  0  0  0
    5.6720    2.0830    0.0000 H   0  0  0  0  0  0  0  0  0  0  0  0
    6.5380    0.9630    0.0000 H   0  0  0  0  0  0  0  0  0  0  0  0
   10.3437    4.1654    0.0000 H   0  0  0  0  0  0  0  0  0  0  0  0
    9.9451    4.8556    0.0000 H   0  0  0  0  0  0  0  0  0  0  0  0
    5.7456    2.6654    0.0000 H   0  0  0  0  0  0  0  0  0  0  0  0
    5.3471    3.3556    0.0000 H   0  0  0  0  0  0  0  0  0  0  0  0
    6.5335    0.7480    0.0000 H   0  0  0  0  0  0  0  0  0  0  0  0
    5.7365    0.7480    0.0000 H   0  0  0  0  0  0  0  0  0  0  0  0
   16.6001    2.0830    0.0000 H   0  0  0  0  0  0  0  0  0  0  0  0
   14.1147   -1.3050    0.0000 H   0  0  0  0  0  0  0  0  0  0  0  0
   14.8049   -1.7035    0.0000 H   0  0  0  0  0  0  0  0  0  0  0  0
    3.6584    3.3807    0.0000 H   0  0  0  0  0  0  0  0  0  0  0  0
    4.0569    2.6904    0.0000 H   0  0  0  0  0  0  0  0  0  0  0  0
   17.4662    0.9630    0.0000 H   0  0  0  0  0  0  0  0  0  0  0  0
   16.6832    2.7730    0.0000 H   0  0  0  0  0  0  0  0  0  0  0  0
   16.0632    3.3930    0.0000 H   0  0  0  0  0  0  0  0  0  0  0  0
   15.4432    2.7730    0.0000 H   0  0  0  0  0  0  0  0  0  0  0  0
    4.8796    4.1654    0.0000 H   0  0  0  0  0  0  0  0  0  0  0  0
    4.4810    4.8556    0.0000 H   0  0  0  0  0  0  0  0  0  0  0  0
   13.3256   -4.9170    0.0000 H   0  0  0  0  0  0  0  0  0  0  0  0
   10.5936   -6.0370    0.0000 H   0  0  0  0  0  0  0  0  0  0  0  0
   10.8014   -5.5370    0.0000 H   0  0  0  0  0  0  0  0  0  0  0  0
   13.5335   -6.0370    0.0000 H   0  0  0  0  0  0  0  0  0  0  0  0
   14.4826   -4.2270    0.0000 H   0  0  0  0  0  0  0  0  0  0  0  0
   13.8626   -3.6070    0.0000 H   0  0  0  0  0  0  0  0  0  0  0  0
   13.2426   -4.2270    0.0000 H   0  0  0  0  0  0  0  0  0  0  0  0
    9.0745   -2.8240    0.0000 H   0  0  0  0  0  0  0  0  0  0  0  0
   10.5105   -6.7270    0.0000 H   0  0  0  0  0  0  0  0  0  0  0  0
   11.1305   -7.3470    0.0000 H   0  0  0  0  0  0  0  0  0  0  0  0
   11.7505   -6.7270    0.0000 H   0  0  0  0  0  0  0  0  0  0  0  0
    7.4545   -2.8240    0.0000 H   0  0  0  0  0  0  0  0  0  0  0  0
    9.9191   -5.9798    0.0000 H   0  0  0  0  0  0  0  0  0  0  0  0
    2.8660    1.4630    0.0000 H   0  0  0  0  0  0  0  0  0  0  0  0
    6.6099   -5.9798    0.0000 H   0  0  0  0  0  0  0  0  0  0  0  0
    9.0974   -7.4288    0.0000 H   0  0  0  0  0  0  0  0  0  0  0  0
    7.4316   -7.4288    0.0000 H   0  0  0  0  0  0  0  0  0  0  0  0
    5.2276   -4.7830    0.0000 H   0  0  0  0  0  0  0  0  0  0  0  0
    5.4545   -5.6300    0.0000 H   0  0  0  0  0  0  0  0  0  0  0  0
    6.3014   -5.4030    0.0000 H   0  0  0  0  0  0  0  0  0  0  0  0
    6.3014   -3.0510    0.0000 H   0  0  0  0  0  0  0  0  0  0  0  0
    5.4545   -2.8240    0.0000 H   0  0  0  0  0  0  0  0  0  0  0  0
    5.2276   -3.6710    0.0000 H   0  0  0  0  0  0  0  0  0  0  0  0
    8.0010    6.8930    0.0000 H   0  0  0  0  0  0  0  0  0  0  0  0
    7.4641    5.9630    0.0000 H   0  0  0  0  0  0  0  0  0  0  0  0
    9.7331    6.8930    0.0000 H   0  0  0  0  0  0  0  0  0  0  0  0
   10.2700    5.9630    0.0000 H   0  0  0  0  0  0  0  0  0  0  0  0
    4.4030   -2.3470    0.0000 H   0  0  0  0  0  0  0  0  0  0  0  0
    3.8660   -1.4170    0.0000 H   0  0  0  0  0  0  0  0  0  0  0  0
    6.6720   -1.4170    0.0000 H   0  0  0  0  0  0  0  0  0  0  0  0
    6.1350   -2.3470    0.0000 H   0  0  0  0  0  0  0  0  0  0  0  0
   17.5072   -1.4221    0.0000 H   0  0  0  0  0  0  0  0  0  0  0  0
   17.5072   -2.4960    0.0000 H   0  0  0  0  0  0  0  0  0  0  0  0
   15.0773   -2.8250    0.0000 H   0  0  0  0  0  0  0  0  0  0  0  0
   16.0073   -3.3619    0.0000 H   0  0  0  0  0  0  0  0  0  0  0  0
    2.5369    6.8930    0.0000 H   0  0  0  0  0  0  0  0  0  0  0  0
    2.0000    5.9630    0.0000 H   0  0  0  0  0  0  0  0  0  0  0  0
    4.2690    6.8930    0.0000 H   0  0  0  0  0  0  0  0  0  0  0  0
    4.8059    5.9630    0.0000 H   0  0  0  0  0  0  0  0  0  0  0  0
  1  9  2  0  0  0  0
  1 10  2  0  0  0  0
  1 21  1  0  0  0  0
  1 58  1  0  0  0  0
  2 37  2  0  0  0  0
  3 40  2  0  0  0  0
  4 42  2  0  0  0  0
  5 48  2  0  0  0  0
  6 52  1  0  0  0  0
  6127  1  0  0  0  0
  7 52  2  0  0  0  0
  8 56  2  0  0  0  0
 11 61  2  0  0  0  0
 32 12  1  6  0  0  0
 12 40  1  0  0  0  0
 12 84  1  0  0  0  0
 33 13  1  1  0  0  0
 13 37  1  0  0  0  0
 13 87  1  0  0  0  0
 35 14  1  1  0  0  0
 14 48  1  0  0  0  0
 14 94  1  0  0  0  0
 15 42  1  0  0  0  0
 44 15  1  6  0  0  0
 15 96  1  0  0  0  0
 49 16  1  6  0  0  0
 16 56  1  0  0  0  0
 16108  1  0  0  0  0
 17 45  1  0  0  0  0
 17 66  2  0  0  0  0
 18 47  1  0  0  0  0
 18 69  2  0  0  0  0
 19 50  1  0  0  0  0
 19 71  2  0  0  0  0
 55 20  1  1  0  0  0
 20 61  1  0  0  0  0
 20117  1  0  0  0  0
 57 21  1  6  0  0  0
 21116  1  0  0  0  0
 22 54  1  0  0  0  0
 22 76  2  0  0  0  0
 23 62  1  0  0  0  0
 23 74  1  0  0  0  0
 23 75  1  0  0  0  0
 24 66  1  0  0  0  0
 24137  1  0  0  0  0
 24138  1  0  0  0  0
 25 66  1  0  0  0  0
 25139  1  0  0  0  0
 25140  1  0  0  0  0
 26 69  1  0  0  0  0
 26141  1  0  0  0  0
 26142  1  0  0  0  0
 27 69  1  0  0  0  0
 27143  1  0  0  0  0
 27144  1  0  0  0  0
 28 71  1  0  0  0  0
 28145  1  0  0  0  0
 28146  1  0  0  0  0
 29 71  1  0  0  0  0
 29147  1  0  0  0  0
 29148  1  0  0  0  0
 30 76  1  0  0  0  0
 30149  1  0  0  0  0
 30150  1  0  0  0  0
 31 76  1  0  0  0  0
 31151  1  0  0  0  0
 31152  1  0  0  0  0
 32 34  1  0  0  0  0
 32 37  1  0  0  0  0
 32 77  1  0  0  0  0
 33 36  1  0  0  0  0
 33 42  1  0  0  0  0
 33 78  1  0  0  0  0
 34 39  1  0  0  0  0
 34 79  1  0  0  0  0
 34 80  1  0  0  0  0
 35 38  1  0  0  0  0
 35 40  1  0  0  0  0
 35 81  1  0  0  0  0
 36 41  1  0  0  0  0
 36 82  1  0  0  0  0
 36 83  1  0  0  0  0
 38 43  1  0  0  0  0
 38 85  1  0  0  0  0
 38 86  1  0  0  0  0
 39 45  1  0  0  0  0
 39 88  1  0  0  0  0
 39 89  1  0  0  0  0
 41 47  1  0  0  0  0
 41 90  1  0  0  0  0
 41 91  1  0  0  0  0
 43 50  1  0  0  0  0
 43 92  1  0  0  0  0
 43 93  1  0  0  0  0
 44 46  1  0  0  0  0
 44 52  1  0  0  0  0
 44 95  1  0  0  0  0
 45 97  1  0  0  0  0
 45 98  1  0  0  0  0
 46 51  1  0  0  0  0
 46 99  1  0  0  0  0
 46100  1  0  0  0  0
 47101  1  0  0  0  0
 47102  1  0  0  0  0
 48 49  1  0  0  0  0
 49 53  1  0  0  0  0
 49103  1  0  0  0  0
 50104  1  0  0  0  0
 50105  1  0  0  0  0
 51 54  1  0  0  0  0
 51106  1  0  0  0  0
 51107  1  0  0  0  0
 53109  1  0  0  0  0
 53110  1  0  0  0  0
 53111  1  0  0  0  0
 54112  1  0  0  0  0
 54113  1  0  0  0  0
 55 56  1  0  0  0  0
 55 63  1  0  0  0  0
 55114  1  0  0  0  0
 57 61  1  0  0  0  0
 57 65  1  0  0  0  0
 57115  1  0  0  0  0
 58 59  1  0  0  0  0
 58 64  2  0  0  0  0
 59 60  1  0  0  0  0
 59 68  2  0  0  0  0
 60 62  1  0  0  0  0
 60 70  2  0  0  0  0
 62 67  2  0  0  0  0
 63118  1  0  0  0  0
 63119  1  0  0  0  0
 63120  1  0  0  0  0
 64 67  1  0  0  0  0
 64121  1  0  0  0  0
 65122  1  0  0  0  0
 65123  1  0  0  0  0
 65124  1  0  0  0  0
 67125  1  0  0  0  0
 68 72  1  0  0  0  0
 68126  1  0  0  0  0
 70 73  1  0  0  0  0
 70128  1  0  0  0  0
 72 73  2  0  0  0  0
 72129  1  0  0  0  0
 73130  1  0  0  0  0
 74131  1  0  0  0  0
 74132  1  0  0  0  0
 74133  1  0  0  0  0
 75134  1  0  0  0  0
 75135  1  0  0  0  0
 75136  1  0  0  0  0
M  END
> <PUBCHEM_COMPOUND_CID>
44378515

> <PUBCHEM_COMPOUND_CANONICALIZED>
1

> <PUBCHEM_CACTVS_COMPLEXITY>
2180

> <PUBCHEM_CACTVS_HBOND_ACCEPTOR>
16

> <PUBCHEM_CACTVS_HBOND_DONOR>
16

> <PUBCHEM_CACTVS_ROTATABLE_BOND>
33

> <PUBCHEM_CACTVS_SUBSKEYS>
AAADcfB//ABAAAAAAAAAAAAAAAAAAAAAAAAwYAAAAAAAAADBUAAAHgQQSAAADCjB2AQzycPAAgKoAiXSfHDCABEhAgAIiJmIZIgKYDLAkbGUYAhklgDYyAeYkYAOgAQAwAAWAAAACAGAACwAAAAAAAAAAA==

> <PUBCHEM_IUPAC_OPENEYE_NAME>
(2S)-2-[[(2S)-2-[[(2S)-2-[[(2S)-2-[[(2S)-2-[[(2S)-2-[[(2S)-2-[[4-(dimethylamino)-1-naphthyl]sulfonylamino]propanoyl]amino]propanoyl]amino]propanoyl]amino]-5-guanidino-pentanoyl]amino]-5-guanidino-pentanoyl]amino]-5-guanidino-pentanoyl]amino]-5-guanidino-pentanoic acid

> <PUBCHEM_IUPAC_CAS_NAME>
(2S)-5-(diaminomethylideneamino)-2-[[(2S)-5-(diaminomethylideneamino)-2-[[(2S)-5-(diaminomethylideneamino)-2-[[(2S)-5-(diaminomethylideneamino)-2-[[(2S)-2-[[(2S)-2-[[(2S)-2-[[4-(dimethylamino)-1-naphthalenyl]sulfonylamino]-1-oxopropyl]amino]-1-oxopropyl]amino]-1-oxopropyl]amino]-1-oxopentyl]amino]-1-oxopentyl]amino]-1-oxopentyl]amino]pentanoic acid

> <PUBCHEM_IUPAC_NAME_MARKUP>
(2<I>S</I>)-5-(diaminomethylideneamino)-2-[[(2<I>S</I>)-5-(diaminomethylideneamino)-2-[[(2<I>S</I>)-5-(diaminomethylideneamino)-2-[[(2<I>S</I>)-5-(diaminomethylideneamino)-2-[[(2<I>S</I>)-2-[[(2<I>S</I>)-2-[[(2<I>S</I>)-2-[[4-(dimethylamino)naphthalen-1-yl]sulfonylamino]propanoyl]amino]propanoyl]amino]propanoyl]amino]pentanoyl]amino]pentanoyl]amino]pentanoyl]amino]pentanoic acid

> <PUBCHEM_IUPAC_NAME>
(2S)-5-(diaminomethylideneamino)-2-[[(2S)-5-(diaminomethylideneamino)-2-[[(2S)-5-(diaminomethylideneamino)-2-[[(2S)-5-(diaminomethylideneamino)-2-[[(2S)-2-[[(2S)-2-[[(2S)-2-[[4-(dimethylamino)naphthalen-1-yl]sulfonylamino]propanoyl]amino]propanoyl]amino]propanoyl]amino]pentanoyl]amino]pentanoyl]amino]pentanoyl]amino]pentanoic acid

> <PUBCHEM_IUPAC_SYSTEMATIC_NAME>
(2S)-5-[bis(azanyl)methylideneamino]-2-[[(2S)-5-[bis(azanyl)methylideneamino]-2-[[(2S)-5-[bis(azanyl)methylideneamino]-2-[[(2S)-5-[bis(azanyl)methylideneamino]-2-[[(2S)-2-[[(2S)-2-[[(2S)-2-[[4-(dimethylamino)naphthalen-1-yl]sulfonylamino]propanoyl]amino]propanoyl]amino]propanoyl]amino]pentanoyl]amino]pentanoyl]amino]pentanoyl]amino]pentanoic acid

> <PUBCHEM_IUPAC_TRADITIONAL_NAME>
(2S)-2-[[(2S)-2-[[(2S)-2-[[(2S)-2-[[(2S)-2-[[(2S)-2-[[(2S)-2-[[4-(dimethylamino)-1-naphthyl]sulfonylamino]propanoyl]amino]propanoyl]amino]propanoyl]amino]-5-guanidino-pentanoyl]amino]-5-guanidino-pentanoyl]amino]-5-guanidino-pentanoyl]amino]-5-guanidino-valeric acid

> <PUBCHEM_IUPAC_INCHI>
InChI=1S/C45H76N20O10S/c1-24(59-37(68)26(3)64-76(74,75)34-19-18-33(65(4)5)27-12-6-7-13-28(27)34)35(66)58-25(2)36(67)60-29(14-8-20-54-42(46)47)38(69)61-30(15-9-21-55-43(48)49)39(70)62-31(16-10-22-56-44(50)51)40(71)63-32(41(72)73)17-11-23-57-45(52)53/h6-7,12-13,18-19,24-26,29-32,64H,8-11,14-17,20-23H2,1-5H3,(H,58,66)(H,59,68)(H,60,67)(H,61,69)(H,62,70)(H,63,71)(H,72,73)(H4,46,47,54)(H4,48,49,55)(H4,50,51,56)(H4,52,53,57)/t24-,25-,26-,29-,30-,31-,32-/m0/s1

> <PUBCHEM_IUPAC_INCHIKEY>
VJYSQPXPFOQAPH-GWBHOHONSA-N

> <PUBCHEM_XLOGP3_AA>
-4.1

> <PUBCHEM_EXACT_MASS>
1088.57739988

> <PUBCHEM_MOLECULAR_FORMULA>
C45H76N20O10S

> <PUBCHEM_MOLECULAR_WEIGHT>
1089.3

> <PUBCHEM_SMILES>
C[C@@H](C(=O)N[C@@H](C)C(=O)N[C@@H](CCCN=C(N)N)C(=O)N[C@@H](CCCN=C(N)N)C(=O)N[C@@H](CCCN=C(N)N)C(=O)N[C@@H](CCCN=C(N)N)C(=O)O)NC(=O)[C@H](C)NS(=O)(=O)C1=CC=C(C2=CC=CC=C21)N(C)C

> <PUBCHEM_OPENEYE_CAN_SMILES>
CC(C(=O)NC(C)C(=O)NC(CCCN=C(N)N)C(=O)NC(CCCN=C(N)N)C(=O)NC(CCCN=C(N)N)C(=O)NC(CCCN=C(N)N)C(=O)O)NC(=O)C(C)NS(=O)(=O)C1=CC=C(C2=CC=CC=C21)N(C)C

> <PUBCHEM_OPENEYE_ISO_SMILES>
C[C@@H](C(=O)N[C@@H](C)C(=O)N[C@@H](CCCN=C(N)N)C(=O)N[C@@H](CCCN=C(N)N)C(=O)N[C@@H](CCCN=C(N)N)C(=O)N[C@@H](CCCN=C(N)N)C(=O)O)NC(=O)[C@H](C)NS(=O)(=O)C1=CC=C(C2=CC=CC=C21)N(C)C

> <PUBCHEM_CACTVS_TPSA>
527

> <PUBCHEM_MONOISOTOPIC_WEIGHT>
1088.57739988

> <PUBCHEM_TOTAL_CHARGE>
0

> <PUBCHEM_HEAVY_ATOM_COUNT>
76

> <PUBCHEM_ATOM_DEF_STEREO_COUNT>
7

> <PUBCHEM_ATOM_UDEF_STEREO_COUNT>
0

> <PUBCHEM_BOND_DEF_STEREO_COUNT>
0

> <PUBCHEM_BOND_UDEF_STEREO_COUNT>
0

> <PUBCHEM_ISOTOPIC_ATOM_COUNT>
0

> <PUBCHEM_COMPONENT_COUNT>
1

> <PUBCHEM_CACTVS_TAUTO_COUNT>
-1

> <PUBCHEM_COORDINATE_TYPE>
1
5
255

> <PUBCHEM_BONDANNOTATIONS>
32  12  6
33  13  5
35  14  5
44  15  6
49  16  6
55  20  5
57  21  6
58  59  8
58  64  8
59  60  8
59  68  8
60  62  8
60  70  8
62  67  8
64  67  8
68  72  8
70  73  8
72  73  8

$$$$
