49830470
  -OEChem-03202503012D

 49 53  0     0  0  0  0  0  0999 V2000
   12.2486   -1.4428    0.0000 O   0  0  0  0  0  0  0  0  0  0  0  0
    5.1646   -1.3236    0.0000 N   0  0  0  0  0  0  0  0  0  0  0  0
   10.2916   -3.4647    0.0000 N   0  0  0  0  0  0  0  0  0  0  0  0
   10.8752   -2.6600    0.0000 N   0  0  0  0  0  0  0  0  0  0  0  0
   10.6022   -0.9048    0.0000 N   0  0  0  0  0  0  0  0  0  0  0  0
    6.6428   -0.6655    0.0000 N   0  0  0  0  0  0  0  0  0  0  0  0
    5.6646   -0.4576    0.0000 N   0  0  0  0  0  0  0  0  0  0  0  0
   13.1341    4.0541    0.0000 N   0  0  0  0  0  0  0  0  0  0  0  0
    9.3454   -2.1600    0.0000 C   0  0  0  0  0  0  0  0  0  0  0  0
    9.3454   -3.1600    0.0000 C   0  0  0  0  0  0  0  0  0  0  0  0
    7.6133   -2.1600    0.0000 C   0  0  0  0  0  0  0  0  0  0  0  0
    8.4793   -1.6600    0.0000 C   0  0  0  0  0  0  0  0  0  0  0  0
   10.2916   -1.8553    0.0000 C   0  0  0  0  0  0  0  0  0  0  0  0
    6.7473   -1.6600    0.0000 C   0  0  0  0  0  0  0  0  0  0  0  0
    8.4793   -3.6600    0.0000 C   0  0  0  0  0  0  0  0  0  0  0  0
    7.6133   -3.1600    0.0000 C   0  0  0  0  0  0  0  0  0  0  0  0
    4.1701   -1.4281    0.0000 C   0  0  0  0  0  0  0  0  0  0  0  0
    5.8338   -2.0668    0.0000 C   0  0  0  0  0  0  0  0  0  0  0  0
    3.5823   -0.6191    0.0000 C   0  0  0  0  0  0  0  0  0  0  0  0
   11.5808   -0.6985    0.0000 C   0  0  0  0  0  0  0  0  0  0  0  0
    2.5878   -0.7236    0.0000 C   0  0  0  0  0  0  0  0  0  0  0  0
    3.9890    0.2944    0.0000 C   0  0  0  0  0  0  0  0  0  0  0  0
   11.8914    0.2520    0.0000 C   0  0  0  0  0  0  0  0  0  0  0  0
    2.0000    0.0854    0.0000 C   0  0  0  0  0  0  0  0  0  0  0  0
    3.4013    1.1034    0.0000 C   0  0  0  0  0  0  0  0  0  0  0  0
    2.4067    0.9989    0.0000 C   0  0  0  0  0  0  0  0  0  0  0  0
   11.2236    0.9963    0.0000 C   0  0  0  0  0  0  0  0  0  0  0  0
   12.8699    0.4582    0.0000 C   0  0  0  0  0  0  0  0  0  0  0  0
   11.5342    1.9468    0.0000 C   0  0  0  0  0  0  0  0  0  0  0  0
   13.1806    1.4087    0.0000 C   0  0  0  0  0  0  0  0  0  0  0  0
   12.5127    2.1530    0.0000 C   0  0  0  0  0  0  0  0  0  0  0  0
   12.8234    3.1035    0.0000 C   0  0  0  0  0  0  0  0  0  0  0  0
    8.4793   -1.0400    0.0000 H   0  0  0  0  0  0  0  0  0  0  0  0
    8.4793   -4.2800    0.0000 H   0  0  0  0  0  0  0  0  0  0  0  0
    7.0764   -3.4700    0.0000 H   0  0  0  0  0  0  0  0  0  0  0  0
    3.6128   -1.6999    0.0000 H   0  0  0  0  0  0  0  0  0  0  0  0
    4.3410   -2.0241    0.0000 H   0  0  0  0  0  0  0  0  0  0  0  0
    5.7048   -2.6732    0.0000 H   0  0  0  0  0  0  0  0  0  0  0  0
   10.4842   -4.0541    0.0000 H   0  0  0  0  0  0  0  0  0  0  0  0
   10.1882   -0.4433    0.0000 H   0  0  0  0  0  0  0  0  0  0  0  0
    2.3356   -1.2900    0.0000 H   0  0  0  0  0  0  0  0  0  0  0  0
    4.6056    0.3592    0.0000 H   0  0  0  0  0  0  0  0  0  0  0  0
    1.3834    0.0206    0.0000 H   0  0  0  0  0  0  0  0  0  0  0  0
    3.6534    1.6698    0.0000 H   0  0  0  0  0  0  0  0  0  0  0  0
    2.0423    1.5005    0.0000 H   0  0  0  0  0  0  0  0  0  0  0  0
   10.6169    0.8684    0.0000 H   0  0  0  0  0  0  0  0  0  0  0  0
   13.2840   -0.0033    0.0000 H   0  0  0  0  0  0  0  0  0  0  0  0
   11.1202    2.4083    0.0000 H   0  0  0  0  0  0  0  0  0  0  0  0
   13.7873    1.5366    0.0000 H   0  0  0  0  0  0  0  0  0  0  0  0
  1 20  2  0  0  0  0
  2  7  1  0  0  0  0
  2 17  1  0  0  0  0
  2 18  1  0  0  0  0
  3  4  1  0  0  0  0
  3 10  1  0  0  0  0
  3 39  1  0  0  0  0
  4 13  2  0  0  0  0
  5 13  1  0  0  0  0
  5 20  1  0  0  0  0
  5 40  1  0  0  0  0
  6  7  2  0  0  0  0
  6 14  1  0  0  0  0
  8 32  3  0  0  0  0
  9 10  2  0  0  0  0
  9 12  1  0  0  0  0
  9 13  1  0  0  0  0
 10 15  1  0  0  0  0
 11 12  2  0  0  0  0
 11 14  1  0  0  0  0
 11 16  1  0  0  0  0
 12 33  1  0  0  0  0
 14 18  2  0  0  0  0
 15 16  2  0  0  0  0
 15 34  1  0  0  0  0
 16 35  1  0  0  0  0
 17 19  1  0  0  0  0
 17 36  1  0  0  0  0
 17 37  1  0  0  0  0
 18 38  1  0  0  0  0
 19 21  2  0  0  0  0
 19 22  1  0  0  0  0
 20 23  1  0  0  0  0
 21 24  1  0  0  0  0
 21 41  1  0  0  0  0
 22 25  2  0  0  0  0
 22 42  1  0  0  0  0
 23 27  2  0  0  0  0
 23 28  1  0  0  0  0
 24 26  2  0  0  0  0
 24 43  1  0  0  0  0
 25 26  1  0  0  0  0
 25 44  1  0  0  0  0
 26 45  1  0  0  0  0
 27 29  1  0  0  0  0
 27 46  1  0  0  0  0
 28 30  2  0  0  0  0
 28 47  1  0  0  0  0
 29 31  2  0  0  0  0
 29 48  1  0  0  0  0
 30 31  1  0  0  0  0
 30 49  1  0  0  0  0
 31 32  1  0  0  0  0
M  END
> <PUBCHEM_COMPOUND_CID>
49830470

> <PUBCHEM_COMPOUND_CANONICALIZED>
1

> <PUBCHEM_CACTVS_COMPLEXITY>
694

> <PUBCHEM_CACTVS_HBOND_ACCEPTOR>
5

> <PUBCHEM_CACTVS_HBOND_DONOR>
2

> <PUBCHEM_CACTVS_ROTATABLE_BOND>
5

> <PUBCHEM_CACTVS_SUBSKEYS>
AAADceB7oAAAAAAAAAAAAAAAAAAAAWLAAAAwYMAAAAAAAFgB/AAAHgAYAAAADAjBngQ98PLrAAC6Bzd3dACyBAY1kgAd+SE4dNiI4LLA3dGUpQhwnQLIyY8YiMCOSAACAAACAACQAAQAAAQAAAAAAAAAAA==

> <PUBCHEM_IUPAC_OPENEYE_NAME>
N-[5-(1-benzyltriazol-4-yl)-1H-indazol-3-yl]-4-cyano-benzamide

> <PUBCHEM_IUPAC_CAS_NAME>
4-cyano-N-[5-[1-(phenylmethyl)-4-triazolyl]-1H-indazol-3-yl]benzamide

> <PUBCHEM_IUPAC_NAME_MARKUP>
<I>N</I>-[5-(1-benzyltriazol-4-yl)-1<I>H</I>-indazol-3-yl]-4-cyanobenzamide

> <PUBCHEM_IUPAC_NAME>
N-[5-(1-benzyltriazol-4-yl)-1H-indazol-3-yl]-4-cyanobenzamide

> <PUBCHEM_IUPAC_SYSTEMATIC_NAME>
4-cyano-N-[5-[1-(phenylmethyl)-1,2,3-triazol-4-yl]-1H-indazol-3-yl]benzamide

> <PUBCHEM_IUPAC_TRADITIONAL_NAME>
N-[5-(1-benzyltriazol-4-yl)-1H-indazol-3-yl]-4-cyano-benzamide

> <PUBCHEM_IUPAC_INCHI>
InChI=1S/C24H17N7O/c25-13-16-6-8-18(9-7-16)24(32)26-23-20-12-19(10-11-21(20)27-29-23)22-15-31(30-28-22)14-17-4-2-1-3-5-17/h1-12,15H,14H2,(H2,26,27,29,32)

> <PUBCHEM_IUPAC_INCHIKEY>
BEJCLDKQCNVTQR-UHFFFAOYSA-N

> <PUBCHEM_XLOGP3_AA>
3.5

> <PUBCHEM_EXACT_MASS>
419.14945819

> <PUBCHEM_MOLECULAR_FORMULA>
C24H17N7O

> <PUBCHEM_MOLECULAR_WEIGHT>
419.4

> <PUBCHEM_SMILES>
C1=CC=C(C=C1)CN2C=C(N=N2)C3=CC4=C(C=C3)NN=C4NC(=O)C5=CC=C(C=C5)C#N

> <PUBCHEM_OPENEYE_CAN_SMILES>
C1=CC=C(C=C1)CN2C=C(N=N2)C3=CC4=C(C=C3)NN=C4NC(=O)C5=CC=C(C=C5)C#N

> <PUBCHEM_OPENEYE_ISO_SMILES>
C1=CC=C(C=C1)CN2C=C(N=N2)C3=CC4=C(C=C3)NN=C4NC(=O)C5=CC=C(C=C5)C#N

> <PUBCHEM_CACTVS_TPSA>
112

> <PUBCHEM_MONOISOTOPIC_WEIGHT>
419.14945819

> <PUBCHEM_TOTAL_CHARGE>
0

> <PUBCHEM_HEAVY_ATOM_COUNT>
32

> <PUBCHEM_ATOM_DEF_STEREO_COUNT>
0

> <PUBCHEM_ATOM_UDEF_STEREO_COUNT>
0

> <PUBCHEM_BOND_DEF_STEREO_COUNT>
0

> <PUBCHEM_BOND_UDEF_STEREO_COUNT>
0

> <PUBCHEM_ISOTOPIC_ATOM_COUNT>
0

> <PUBCHEM_COMPONENT_COUNT>
1

> <PUBCHEM_CACTVS_TAUTO_COUNT>
-1

> <PUBCHEM_COORDINATE_TYPE>
1
5
255

> <PUBCHEM_BONDANNOTATIONS>
10  15  8
11  12  8
11  16  8
14  18  8
15  16  8
19  21  8
19  22  8
2  18  8
2  7  8
21  24  8
22  25  8
23  27  8
23  28  8
24  26  8
25  26  8
27  29  8
28  30  8
29  31  8
3  10  8
3  4  8
30  31  8
4  13  8
6  14  8
6  7  8
9  10  8
9  12  8
9  13  8

$$$$
