46905118
  -OEChem-03192523232D

 98105  0     1  0  0  0  0  0999 V2000
    5.0958    4.2710    0.0000 O   0  0  0  0  0  0  0  0  0  0  0  0
    8.3498    1.4821    0.0000 O   0  0  0  0  0  0  0  0  0  0  0  0
    7.9383   -1.2428    0.0000 O   0  0  0  0  0  0  0  0  0  0  0  0
    7.0741    4.2146    0.0000 O   0  0  0  0  0  0  0  0  0  0  0  0
    5.4800    0.0026    0.0000 O   0  0  0  0  0  0  0  0  0  0  0  0
    8.1249   -0.8583    0.0000 O   0  0  0  0  0  0  0  0  0  0  0  0
    6.8876    5.8928    0.0000 O   0  0  0  0  0  0  0  0  0  0  0  0
    5.9470    5.5533    0.0000 O   0  0  0  0  0  0  0  0  0  0  0  0
    6.4402   -2.0897    0.0000 O   0  0  0  0  0  0  0  0  0  0  0  0
    8.3817    5.4394    0.0000 O   0  0  0  0  0  0  0  0  0  0  0  0
   10.0810    0.2981    0.0000 O   0  0  0  0  0  0  0  0  0  0  0  0
    8.8373    3.0072    0.0000 O   0  0  0  0  0  0  0  0  0  0  0  0
    3.0702    4.1470    0.0000 O   0  0  0  0  0  0  0  0  0  0  0  0
    3.9550    0.4901    0.0000 O   0  0  0  0  0  0  0  0  0  0  0  0
    2.2380    2.2721    0.0000 O   0  0  0  0  0  0  0  0  0  0  0  0
    7.5367   -2.6984    0.0000 O   0  0  0  0  0  0  0  0  0  0  0  0
    4.9361   -1.2307    0.0000 O   0  0  0  0  0  0  0  0  0  0  0  0
   11.4872   -0.7131    0.0000 O   0  0  0  0  0  0  0  0  0  0  0  0
    9.6647   -4.9362    0.0000 O   0  0  0  0  0  0  0  0  0  0  0  0
   11.5375   -2.0220    0.0000 O   0  0  0  0  0  0  0  0  0  0  0  0
   11.4423   -4.0197    0.0000 O   0  0  0  0  0  0  0  0  0  0  0  0
    2.4484   -3.8405    0.0000 O   0  0  0  0  0  0  0  0  0  0  0  0
    5.4564   -5.5584    0.0000 O   0  0  0  0  0  0  0  0  0  0  0  0
    3.4565   -5.5678    0.0000 O   0  0  0  0  0  0  0  0  0  0  0  0
   14.2338    1.6227    0.0000 O   0  0  0  0  0  0  0  0  0  0  0  0
   11.4215    3.6452    0.0000 O   0  0  0  0  0  0  0  0  0  0  0  0
   13.4115    3.4458    0.0000 O   0  0  0  0  0  0  0  0  0  0  0  0
    6.2412    3.1403    0.0000 C   0  0  3  0  0  0  0  0  0  0  0  0
    6.0785    4.1210    0.0000 C   0  0  3  0  0  0  0  0  0  0  0  0
    5.3524    2.6821    0.0000 C   0  0  0  0  0  0  0  0  0  0  0  0
    6.7113    4.9084    0.0000 C   0  0  0  0  0  0  0  0  0  0  0  0
    8.1140    0.5103    0.0000 C   0  0  1  0  0  0  0  0  0  0  0  0
    7.3903   -0.1798    0.0000 C   0  0  1  0  0  0  0  0  0  0  0  0
    7.2367    3.0452    0.0000 C   0  0  0  0  0  0  0  0  0  0  0  0
    6.4084   -0.3690    0.0000 C   0  0  2  0  0  0  0  0  0  0  0  0
    8.5022   -0.4140    0.0000 C   0  0  1  0  0  0  0  0  0  0  0  0
    4.6479    3.3835    0.0000 C   0  0  0  0  0  0  0  0  0  0  0  0
    6.9361   -1.2213    0.0000 C   0  0  2  0  0  0  0  0  0  0  0  0
    4.8524    1.8161    0.0000 C   0  0  0  0  0  0  0  0  0  0  0  0
    7.7012    4.7067    0.0000 C   0  0  0  0  0  0  0  0  0  0  0  0
    7.9753    3.7344    0.0000 C   0  0  0  0  0  0  0  0  0  0  0  0
    8.0227    2.4271    0.0000 C   0  0  0  0  0  0  0  0  0  0  0  0
    9.4972   -0.5137    0.0000 C   0  0  0  0  0  0  0  0  0  0  0  0
    3.6394    3.3248    0.0000 C   0  0  0  0  0  0  0  0  0  0  0  0
    4.8999    0.8172    0.0000 C   0  0  0  0  0  0  0  0  0  0  0  0
    3.8625    1.6141    0.0000 C   0  0  0  0  0  0  0  0  0  0  0  0
    3.2296    2.4014    0.0000 C   0  0  0  0  0  0  0  0  0  0  0  0
    8.0774   -1.8572    0.0000 C   0  0  0  0  0  0  0  0  0  0  0  0
    5.4402   -2.0944    0.0000 C   0  0  0  0  0  0  0  0  0  0  0  0
    8.9186   -2.3978    0.0000 C   0  0  0  0  0  0  0  0  0  0  0  0
   11.0761    0.1984    0.0000 C   0  0  0  0  0  0  0  0  0  0  0  0
    4.9443   -2.9627    0.0000 C   0  0  0  0  0  0  0  0  0  0  0  0
    9.8074   -1.9396    0.0000 C   0  0  0  0  0  0  0  0  0  0  0  0
    8.8710   -3.3967    0.0000 C   0  0  0  0  0  0  0  0  0  0  0  0
   11.6599    1.0103    0.0000 C   0  0  0  0  0  0  0  0  0  0  0  0
    5.4483   -3.8264    0.0000 C   0  0  0  0  0  0  0  0  0  0  0  0
    3.9443   -2.9674    0.0000 C   0  0  0  0  0  0  0  0  0  0  0  0
    9.7122   -3.9373    0.0000 C   0  0  0  0  0  0  0  0  0  0  0  0
   10.6487   -2.4802    0.0000 C   0  0  0  0  0  0  0  0  0  0  0  0
   11.2488    1.9218    0.0000 C   0  0  0  0  0  0  0  0  0  0  0  0
   12.6549    0.9105    0.0000 C   0  0  0  0  0  0  0  0  0  0  0  0
   10.6011   -3.4791    0.0000 C   0  0  0  0  0  0  0  0  0  0  0  0
    3.4484   -3.8358    0.0000 C   0  0  0  0  0  0  0  0  0  0  0  0
    4.9524   -4.6948    0.0000 C   0  0  0  0  0  0  0  0  0  0  0  0
    3.9524   -4.6995    0.0000 C   0  0  0  0  0  0  0  0  0  0  0  0
   13.2388    1.7224    0.0000 C   0  0  0  0  0  0  0  0  0  0  0  0
   11.8327    2.7337    0.0000 C   0  0  0  0  0  0  0  0  0  0  0  0
   12.8277    2.6340    0.0000 C   0  0  0  0  0  0  0  0  0  0  0  0
    6.3585    2.5315    0.0000 H   0  0  0  0  0  0  0  0  0  0  0  0
    7.3779    0.9353    0.0000 H   0  0  0  0  0  0  0  0  0  0  0  0
    7.2204   -0.7760    0.0000 H   0  0  0  0  0  0  0  0  0  0  0  0
    5.8617   -1.0199    0.0000 H   0  0  0  0  0  0  0  0  0  0  0  0
    8.7644   -0.9758    0.0000 H   0  0  0  0  0  0  0  0  0  0  0  0
    6.3162   -1.2323    0.0000 H   0  0  0  0  0  0  0  0  0  0  0  0
    8.5724    3.5675    0.0000 H   0  0  0  0  0  0  0  0  0  0  0  0
    6.8157    3.6510    0.0000 H   0  0  0  0  0  0  0  0  0  0  0  0
    9.3292   -1.1105    0.0000 H   0  0  0  0  0  0  0  0  0  0  0  0
   10.0557   -0.7828    0.0000 H   0  0  0  0  0  0  0  0  0  0  0  0
    3.6522    1.0309    0.0000 H   0  0  0  0  0  0  0  0  0  0  0  0
    7.4707    6.1033    0.0000 H   0  0  0  0  0  0  0  0  0  0  0  0
    5.3638    5.3428    0.0000 H   0  0  0  0  0  0  0  0  0  0  0  0
    2.4522    4.0962    0.0000 H   0  0  0  0  0  0  0  0  0  0  0  0
    2.0000    1.6996    0.0000 H   0  0  0  0  0  0  0  0  0  0  0  0
    9.8369   -1.3203    0.0000 H   0  0  0  0  0  0  0  0  0  0  0  0
    8.3199   -3.6808    0.0000 H   0  0  0  0  0  0  0  0  0  0  0  0
    6.0683   -3.8235    0.0000 H   0  0  0  0  0  0  0  0  0  0  0  0
    3.6318   -2.4320    0.0000 H   0  0  0  0  0  0  0  0  0  0  0  0
   10.6319    1.9837    0.0000 H   0  0  0  0  0  0  0  0  0  0  0  0
   12.9099    0.3454    0.0000 H   0  0  0  0  0  0  0  0  0  0  0  0
   10.1862   -5.2714    0.0000 H   0  0  0  0  0  0  0  0  0  0  0  0
   12.0591   -2.3572    0.0000 H   0  0  0  0  0  0  0  0  0  0  0  0
   11.4128   -4.6390    0.0000 H   0  0  0  0  0  0  0  0  0  0  0  0
    2.1409   -4.3789    0.0000 H   0  0  0  0  0  0  0  0  0  0  0  0
    6.0764   -5.5555    0.0000 H   0  0  0  0  0  0  0  0  0  0  0  0
    3.7690   -6.1033    0.0000 H   0  0  0  0  0  0  0  0  0  0  0  0
   14.4887    1.0575    0.0000 H   0  0  0  0  0  0  0  0  0  0  0  0
   11.7835    4.1486    0.0000 H   0  0  0  0  0  0  0  0  0  0  0  0
   14.0285    3.3840    0.0000 H   0  0  0  0  0  0  0  0  0  0  0  0
  1 29  1  0  0  0  0
  1 37  1  0  0  0  0
  2 32  1  0  0  0  0
  2 42  1  0  0  0  0
  3 36  1  0  0  0  0
  3 38  1  0  0  0  0
  4 29  1  0  0  0  0
  4 76  1  0  0  0  0
  5 35  1  0  0  0  0
  5 45  1  0  0  0  0
 33  6  1  6  0  0  0
  6 48  1  0  0  0  0
  7 31  1  0  0  0  0
  7 80  1  0  0  0  0
  8 31  1  0  0  0  0
  8 81  1  0  0  0  0
 38  9  1  6  0  0  0
  9 49  1  0  0  0  0
 10 40  2  0  0  0  0
 11 43  1  0  0  0  0
 11 51  1  0  0  0  0
 12 42  2  0  0  0  0
 13 44  1  0  0  0  0
 13 82  1  0  0  0  0
 14 45  2  0  0  0  0
 15 47  1  0  0  0  0
 15 83  1  0  0  0  0
 16 48  2  0  0  0  0
 17 49  2  0  0  0  0
 18 51  2  0  0  0  0
 19 58  1  0  0  0  0
 19 90  1  0  0  0  0
 20 59  1  0  0  0  0
 20 91  1  0  0  0  0
 21 62  1  0  0  0  0
 21 92  1  0  0  0  0
 22 63  1  0  0  0  0
 22 93  1  0  0  0  0
 23 64  1  0  0  0  0
 23 94  1  0  0  0  0
 24 65  1  0  0  0  0
 24 95  1  0  0  0  0
 25 66  1  0  0  0  0
 25 96  1  0  0  0  0
 26 67  1  0  0  0  0
 26 97  1  0  0  0  0
 27 68  1  0  0  0  0
 27 98  1  0  0  0  0
 28 29  1  0  0  0  0
 28 30  1  0  0  0  0
 28 34  1  0  0  0  0
 28 69  1  0  0  0  0
 29 31  1  0  0  0  0
 30 37  2  0  0  0  0
 30 39  1  0  0  0  0
 31 40  1  0  0  0  0
 32 33  1  0  0  0  0
 32 36  1  0  0  0  0
 32 70  1  1  0  0  0
 33 35  1  0  0  0  0
 33 71  1  0  0  0  0
 34 41  2  0  0  0  0
 34 42  1  0  0  0  0
 35 38  1  0  0  0  0
 35 72  1  1  0  0  0
 36 43  1  1  0  0  0
 36 73  1  0  0  0  0
 37 44  1  0  0  0  0
 38 74  1  0  0  0  0
 39 45  1  0  0  0  0
 39 46  2  0  0  0  0
 40 41  1  0  0  0  0
 41 75  1  0  0  0  0
 43 77  1  0  0  0  0
 43 78  1  0  0  0  0
 44 47  2  0  0  0  0
 46 47  1  0  0  0  0
 46 79  1  0  0  0  0
 48 50  1  0  0  0  0
 49 52  1  0  0  0  0
 50 53  2  0  0  0  0
 50 54  1  0  0  0  0
 51 55  1  0  0  0  0
 52 56  2  0  0  0  0
 52 57  1  0  0  0  0
 53 59  1  0  0  0  0
 53 84  1  0  0  0  0
 54 58  2  0  0  0  0
 54 85  1  0  0  0  0
 55 60  2  0  0  0  0
 55 61  1  0  0  0  0
 56 64  1  0  0  0  0
 56 86  1  0  0  0  0
 57 63  2  0  0  0  0
 57 87  1  0  0  0  0
 58 62  1  0  0  0  0
 59 62  2  0  0  0  0
 60 67  1  0  0  0  0
 60 88  1  0  0  0  0
 61 66  2  0  0  0  0
 61 89  1  0  0  0  0
 63 65  1  0  0  0  0
 64 65  2  0  0  0  0
 66 68  1  0  0  0  0
 67 68  2  0  0  0  0
M  END
> <PUBCHEM_COMPOUND_CID>
46905118

> <PUBCHEM_COMPOUND_CANONICALIZED>
1

> <PUBCHEM_CACTVS_COMPLEXITY>
1990

> <PUBCHEM_CACTVS_HBOND_ACCEPTOR>
27

> <PUBCHEM_CACTVS_HBOND_DONOR>
14

> <PUBCHEM_CACTVS_ROTATABLE_BOND>
10

> <PUBCHEM_CACTVS_SUBSKEYS>
AAADceB8PgAAAAAAAAAAAAAAAAAAASAAAAA0YMGCAAAAAEgBVAAAGgAACAAADRSwmAMwDoAABgCIAqDSCAICCAAkIAAAiAFGiMgdJzaGNRqieSOl4BUPuYfK7PzOoAABCAAYQABAAAIQADCAAAAAAAAAAA==

> <PUBCHEM_IUPAC_OPENEYE_NAME>
[(1R,18R,19R,21R,22S)-6,7,11,12,12-pentahydroxy-3,13,16-trioxo-21,22-bis[(3,4,5-trihydroxybenzoyl)oxy]-2,17,20,23-tetraoxapentacyclo[16.3.1.18,11.04,9.010,15]tricosa-4,6,8,14-tetraen-19-yl]methyl 3,4,5-trihydroxybenzoate

> <PUBCHEM_IUPAC_CAS_NAME>
3,4,5-trihydroxybenzoic acid [(1R,18R,19R,21R,22S)-6,7,11,12,12-pentahydroxy-3,13,16-trioxo-21,22-bis[oxo-(3,4,5-trihydroxyphenyl)methoxy]-2,17,20,23-tetraoxapentacyclo[16.3.1.18,11.04,9.010,15]tricosa-4,6,8,14-tetraen-19-yl]methyl ester

> <PUBCHEM_IUPAC_NAME_MARKUP>
[(1<I>R</I>,18<I>R</I>,19<I>R</I>,21<I>R</I>,22<I>S</I>)-6,7,11,12,12-pentahydroxy-3,13,16-trioxo-21,22-bis[(3,4,5-trihydroxybenzoyl)oxy]-2,17,20,23-tetraoxapentacyclo[16.3.1.1<SUP>8,11</SUP>.0<SUP>4,9</SUP>.0<SUP>10,15</SUP>]tricosa-4,6,8,14-tetraen-19-yl]methyl 3,4,5-trihydroxybenzoate

> <PUBCHEM_IUPAC_NAME>
[(1R,18R,19R,21R,22S)-6,7,11,12,12-pentahydroxy-3,13,16-trioxo-21,22-bis[(3,4,5-trihydroxybenzoyl)oxy]-2,17,20,23-tetraoxapentacyclo[16.3.1.18,11.04,9.010,15]tricosa-4,6,8,14-tetraen-19-yl]methyl 3,4,5-trihydroxybenzoate

> <PUBCHEM_IUPAC_SYSTEMATIC_NAME>
[(1R,18R,19R,21R,22S)-6,7,11,12,12-pentakis(oxidanyl)-3,13,16-tris(oxidanylidene)-21,22-bis[[3,4,5-tris(oxidanyl)phenyl]carbonyloxy]-2,17,20,23-tetraoxapentacyclo[16.3.1.18,11.04,9.010,15]tricosa-4,6,8,14-tetraen-19-yl]methyl 3,4,5-tris(oxidanyl)benzoate

> <PUBCHEM_IUPAC_TRADITIONAL_NAME>
3,4,5-trihydroxybenzoic acid [(1R,18R,19R,21R,22S)-21,22-digalloyloxy-6,7,11,12,12-pentahydroxy-3,13,16-triketo-2,17,20,23-tetraoxapentacyclo[16.3.1.18,11.04,9.010,15]tricosa-4,6,8,14-tetraen-19-yl]methyl ester

> <PUBCHEM_IUPAC_INCHI>
InChI=1S/C41H30O27/c42-15-1-10(2-16(43)26(15)50)34(54)62-9-22-30-32(65-35(55)11-3-17(44)27(51)18(45)4-11)33(39(63-22)67-36(56)12-5-19(46)28(52)20(47)6-12)66-37(57)13-7-21(48)29(53)31-24(13)25-14(38(58)64-30)8-23(49)40(59,60)41(25,61)68-31/h1-8,22,25,30,32-33,39,42-48,50-53,59-61H,9H2/t22-,25?,30-,32+,33-,39-,41?/m1/s1

> <PUBCHEM_IUPAC_INCHIKEY>
NUPTUAXNMUIMFS-CCJKHJEZSA-N

> <PUBCHEM_XLOGP3_AA>
-0.3

> <PUBCHEM_EXACT_MASS>
954.09744568

> <PUBCHEM_MOLECULAR_FORMULA>
C41H30O27

> <PUBCHEM_MOLECULAR_WEIGHT>
954.7

> <PUBCHEM_SMILES>
C1=C(C=C(C(=C1O)O)O)C(=O)OC[C@@H]2[C@@H]3[C@@H]([C@H]([C@H](O2)OC(=O)C4=CC(=C(C(=C4)O)O)O)OC(=O)C5=CC(=C(C6=C5C7C(=CC(=O)C(C7(O6)O)(O)O)C(=O)O3)O)O)OC(=O)C8=CC(=C(C(=C8)O)O)O

> <PUBCHEM_OPENEYE_CAN_SMILES>
C1=C(C=C(C(=C1O)O)O)C(=O)OCC2C3C(C(C(O2)OC(=O)C4=CC(=C(C(=C4)O)O)O)OC(=O)C5=CC(=C(C6=C5C7C(=CC(=O)C(C7(O6)O)(O)O)C(=O)O3)O)O)OC(=O)C8=CC(=C(C(=C8)O)O)O

> <PUBCHEM_OPENEYE_ISO_SMILES>
C1=C(C=C(C(=C1O)O)O)C(=O)OC[C@@H]2[C@@H]3[C@@H]([C@H]([C@H](O2)OC(=O)C4=CC(=C(C(=C4)O)O)O)OC(=O)C5=CC(=C(C6=C5C7C(=CC(=O)C(C7(O6)O)(O)O)C(=O)O3)O)O)OC(=O)C8=CC(=C(C(=C8)O)O)O

> <PUBCHEM_CACTVS_TPSA>
450

> <PUBCHEM_MONOISOTOPIC_WEIGHT>
954.09744568

> <PUBCHEM_TOTAL_CHARGE>
0

> <PUBCHEM_HEAVY_ATOM_COUNT>
68

> <PUBCHEM_ATOM_DEF_STEREO_COUNT>
5

> <PUBCHEM_ATOM_UDEF_STEREO_COUNT>
2

> <PUBCHEM_BOND_DEF_STEREO_COUNT>
0

> <PUBCHEM_BOND_UDEF_STEREO_COUNT>
0

> <PUBCHEM_ISOTOPIC_ATOM_COUNT>
0

> <PUBCHEM_COMPONENT_COUNT>
1

> <PUBCHEM_CACTVS_TAUTO_COUNT>
-1

> <PUBCHEM_COORDINATE_TYPE>
1
5
255

> <PUBCHEM_BONDANNOTATIONS>
28  30  3
30  37  8
30  39  8
32  70  5
35  72  5
36  43  5
37  44  8
39  46  8
29  4  3
44  47  8
46  47  8
50  53  8
50  54  8
52  56  8
52  57  8
53  59  8
54  58  8
55  60  8
55  61  8
56  64  8
57  63  8
58  62  8
59  62  8
33  6  6
60  67  8
61  66  8
63  65  8
64  65  8
66  68  8
67  68  8
38  9  6

$$$$
