11634725
  -OEChem-03202507072D

 54 57  0     1  0  0  0  0  0999 V2000
    4.3800   -4.6418    0.0000 Cl  0  0  0  0  0  0  0  0  0  0  0  0
   10.5224    1.6418    0.0000 Cl  0  0  0  0  0  0  0  0  0  0  0  0
   12.2544    4.6418    0.0000 F   0  0  0  0  0  0  0  0  0  0  0  0
    2.6166   -2.2148    0.0000 O   0  0  0  0  0  0  0  0  0  0  0  0
    2.8423    0.4213    0.0000 O   0  0  0  0  0  0  0  0  0  0  0  0
    4.4246   -0.2832    0.0000 N   0  0  0  0  0  0  0  0  0  0  0  0
    3.7436    2.3054    0.0000 N   0  0  0  0  0  0  0  0  0  0  0  0
    7.0583    2.6418    0.0000 N   0  0  0  0  0  0  0  0  0  0  0  0
    8.7903    2.6418    0.0000 N   0  0  0  0  0  0  0  0  0  0  0  0
    7.9243    4.1418    0.0000 N   0  0  0  0  0  0  0  0  0  0  0  0
    4.0179   -1.1967    0.0000 C   0  0  1  0  0  0  0  0  0  0  0  0
    4.6056   -2.0057    0.0000 C   0  0  0  0  0  0  0  0  0  0  0  0
    3.0233   -1.3012    0.0000 C   0  0  0  0  0  0  0  0  0  0  0  0
    4.2436    1.4394    0.0000 C   0  0  0  0  0  0  0  0  0  0  0  0
    5.3262    2.6418    0.0000 C   0  0  0  0  0  0  0  0  0  0  0  0
    3.8368    0.5259    0.0000 C   0  0  0  0  0  0  0  0  0  0  0  0
    5.2217    1.6473    0.0000 C   0  0  0  0  0  0  0  0  0  0  0  0
    6.1922    3.1418    0.0000 C   0  0  0  0  0  0  0  0  0  0  0  0
    4.4127    3.0486    0.0000 C   0  0  0  0  0  0  0  0  0  0  0  0
    4.1989   -2.9193    0.0000 C   0  0  0  0  0  0  0  0  0  0  0  0
    5.6002   -1.9012    0.0000 C   0  0  0  0  0  0  0  0  0  0  0  0
    6.1922    4.1418    0.0000 C   0  0  0  0  0  0  0  0  0  0  0  0
    4.7867   -3.7283    0.0000 C   0  0  0  0  0  0  0  0  0  0  0  0
    6.1880   -2.7102    0.0000 C   0  0  0  0  0  0  0  0  0  0  0  0
    5.7812   -3.6238    0.0000 C   0  0  0  0  0  0  0  0  0  0  0  0
    7.9243    3.1418    0.0000 C   0  0  0  0  0  0  0  0  0  0  0  0
    7.0583    4.6418    0.0000 C   0  0  0  0  0  0  0  0  0  0  0  0
    5.3262    4.6418    0.0000 C   0  0  0  0  0  0  0  0  0  0  0  0
    9.6564    3.1418    0.0000 C   0  0  0  0  0  0  0  0  0  0  0  0
   10.5224    2.6418    0.0000 C   0  0  0  0  0  0  0  0  0  0  0  0
    9.6564    4.1418    0.0000 C   0  0  0  0  0  0  0  0  0  0  0  0
   11.3884    3.1418    0.0000 C   0  0  0  0  0  0  0  0  0  0  0  0
   10.5224    4.6418    0.0000 C   0  0  0  0  0  0  0  0  0  0  0  0
   11.3884    4.1418    0.0000 C   0  0  0  0  0  0  0  0  0  0  0  0
    4.6345   -1.1319    0.0000 H   0  0  0  0  0  0  0  0  0  0  0  0
    5.0412   -0.2184    0.0000 H   0  0  0  0  0  0  0  0  0  0  0  0
    3.0666   -0.6827    0.0000 H   0  0  0  0  0  0  0  0  0  0  0  0
    2.4218   -1.1513    0.0000 H   0  0  0  0  0  0  0  0  0  0  0  0
    5.6824    1.2324    0.0000 H   0  0  0  0  0  0  0  0  0  0  0  0
    3.1270    2.3702    0.0000 H   0  0  0  0  0  0  0  0  0  0  0  0
    4.2838    3.6550    0.0000 H   0  0  0  0  0  0  0  0  0  0  0  0
    3.5823   -2.9841    0.0000 H   0  0  0  0  0  0  0  0  0  0  0  0
    5.8524   -1.3348    0.0000 H   0  0  0  0  0  0  0  0  0  0  0  0
    6.8046   -2.6454    0.0000 H   0  0  0  0  0  0  0  0  0  0  0  0
    6.1456   -4.1254    0.0000 H   0  0  0  0  0  0  0  0  0  0  0  0
    7.0583    5.2618    0.0000 H   0  0  0  0  0  0  0  0  0  0  0  0
    5.6362    5.1788    0.0000 H   0  0  0  0  0  0  0  0  0  0  0  0
    4.7893    4.9518    0.0000 H   0  0  0  0  0  0  0  0  0  0  0  0
    5.0162    4.1049    0.0000 H   0  0  0  0  0  0  0  0  0  0  0  0
    2.0000   -2.2796    0.0000 H   0  0  0  0  0  0  0  0  0  0  0  0
    8.7903    2.0218    0.0000 H   0  0  0  0  0  0  0  0  0  0  0  0
    9.1194    4.4518    0.0000 H   0  0  0  0  0  0  0  0  0  0  0  0
   11.9253    2.8318    0.0000 H   0  0  0  0  0  0  0  0  0  0  0  0
   10.5224    5.2618    0.0000 H   0  0  0  0  0  0  0  0  0  0  0  0
  1 23  1  0  0  0  0
  2 30  1  0  0  0  0
  3 34  1  0  0  0  0
  4 13  1  0  0  0  0
  4 50  1  0  0  0  0
  5 16  2  0  0  0  0
 11  6  1  1  0  0  0
  6 16  1  0  0  0  0
  6 36  1  0  0  0  0
  7 14  1  0  0  0  0
  7 19  1  0  0  0  0
  7 40  1  0  0  0  0
  8 18  2  0  0  0  0
  8 26  1  0  0  0  0
  9 26  1  0  0  0  0
  9 29  1  0  0  0  0
  9 51  1  0  0  0  0
 10 26  2  0  0  0  0
 10 27  1  0  0  0  0
 11 12  1  0  0  0  0
 11 13  1  0  0  0  0
 11 35  1  0  0  0  0
 12 20  2  0  0  0  0
 12 21  1  0  0  0  0
 13 37  1  0  0  0  0
 13 38  1  0  0  0  0
 14 16  1  0  0  0  0
 14 17  2  0  0  0  0
 15 17  1  0  0  0  0
 15 18  1  0  0  0  0
 15 19  2  0  0  0  0
 17 39  1  0  0  0  0
 18 22  1  0  0  0  0
 19 41  1  0  0  0  0
 20 23  1  0  0  0  0
 20 42  1  0  0  0  0
 21 24  2  0  0  0  0
 21 43  1  0  0  0  0
 22 27  2  0  0  0  0
 22 28  1  0  0  0  0
 23 25  2  0  0  0  0
 24 25  1  0  0  0  0
 24 44  1  0  0  0  0
 25 45  1  0  0  0  0
 27 46  1  0  0  0  0
 28 47  1  0  0  0  0
 28 48  1  0  0  0  0
 28 49  1  0  0  0  0
 29 30  2  0  0  0  0
 29 31  1  0  0  0  0
 30 32  1  0  0  0  0
 31 33  2  0  0  0  0
 31 52  1  0  0  0  0
 32 34  2  0  0  0  0
 32 53  1  0  0  0  0
 33 34  1  0  0  0  0
 33 54  1  0  0  0  0
M  END
> <PUBCHEM_COMPOUND_CID>
11634725

> <PUBCHEM_COMPOUND_CANONICALIZED>
1

> <PUBCHEM_CACTVS_COMPLEXITY>
679

> <PUBCHEM_CACTVS_HBOND_ACCEPTOR>
6

> <PUBCHEM_CACTVS_HBOND_DONOR>
4

> <PUBCHEM_CACTVS_ROTATABLE_BOND>
7

> <PUBCHEM_CACTVS_SUBSKEYS>
AAADceB7sQAGAAAAAAAAAAAAAAAAAWAAAAA8YIAAAAAAAAAB9AAAHwIQCAAADCrhni4/0JbJkgCoAzV3dACCgCk3B6AJ2aG4ZtiKePLB3/HUZQhs1gPYyaeYyeCeAAAAIAAAABAAAABAAAAAIAAAAAAAAA==

> <PUBCHEM_IUPAC_OPENEYE_NAME>
4-[2-(2-chloro-4-fluoro-anilino)-5-methyl-pyrimidin-4-yl]-N-[(1S)-1-(3-chlorophenyl)-2-hydroxy-ethyl]-1H-pyrrole-2-carboxamide

> <PUBCHEM_IUPAC_CAS_NAME>
4-[2-(2-chloro-4-fluoroanilino)-5-methyl-4-pyrimidinyl]-N-[(1S)-1-(3-chlorophenyl)-2-hydroxyethyl]-1H-pyrrole-2-carboxamide

> <PUBCHEM_IUPAC_NAME_MARKUP>
4-[2-(2-chloro-4-fluoroanilino)-5-methylpyrimidin-4-yl]-<I>N</I>-[(1<I>S</I>)-1-(3-chlorophenyl)-2-hydroxyethyl]-1<I>H</I>-pyrrole-2-carboxamide

> <PUBCHEM_IUPAC_NAME>
4-[2-(2-chloro-4-fluoroanilino)-5-methylpyrimidin-4-yl]-N-[(1S)-1-(3-chlorophenyl)-2-hydroxyethyl]-1H-pyrrole-2-carboxamide

> <PUBCHEM_IUPAC_SYSTEMATIC_NAME>
4-[2-[(2-chloranyl-4-fluoranyl-phenyl)amino]-5-methyl-pyrimidin-4-yl]-N-[(1S)-1-(3-chlorophenyl)-2-oxidanyl-ethyl]-1H-pyrrole-2-carboxamide

> <PUBCHEM_IUPAC_TRADITIONAL_NAME>
4-[2-(2-chloro-4-fluoro-anilino)-5-methyl-pyrimidin-4-yl]-N-[(1S)-1-(3-chlorophenyl)-2-hydroxy-ethyl]-1H-pyrrole-2-carboxamide

> <PUBCHEM_IUPAC_INCHI>
InChI=1S/C24H20Cl2FN5O2/c1-13-10-29-24(31-19-6-5-17(27)9-18(19)26)32-22(13)15-8-20(28-11-15)23(34)30-21(12-33)14-3-2-4-16(25)7-14/h2-11,21,28,33H,12H2,1H3,(H,30,34)(H,29,31,32)/t21-/m1/s1

> <PUBCHEM_IUPAC_INCHIKEY>
WUTVMXLIGHTZJC-OAQYLSRUSA-N

> <PUBCHEM_XLOGP3_AA>
4.7

> <PUBCHEM_EXACT_MASS>
499.0978084

> <PUBCHEM_MOLECULAR_FORMULA>
C24H20Cl2FN5O2

> <PUBCHEM_MOLECULAR_WEIGHT>
500.3

> <PUBCHEM_SMILES>
CC1=CN=C(N=C1C2=CNC(=C2)C(=O)N[C@H](CO)C3=CC(=CC=C3)Cl)NC4=C(C=C(C=C4)F)Cl

> <PUBCHEM_OPENEYE_CAN_SMILES>
CC1=CN=C(N=C1C2=CNC(=C2)C(=O)NC(CO)C3=CC(=CC=C3)Cl)NC4=C(C=C(C=C4)F)Cl

> <PUBCHEM_OPENEYE_ISO_SMILES>
CC1=CN=C(N=C1C2=CNC(=C2)C(=O)N[C@H](CO)C3=CC(=CC=C3)Cl)NC4=C(C=C(C=C4)F)Cl

> <PUBCHEM_CACTVS_TPSA>
103

> <PUBCHEM_MONOISOTOPIC_WEIGHT>
499.0978084

> <PUBCHEM_TOTAL_CHARGE>
0

> <PUBCHEM_HEAVY_ATOM_COUNT>
34

> <PUBCHEM_ATOM_DEF_STEREO_COUNT>
1

> <PUBCHEM_ATOM_UDEF_STEREO_COUNT>
0

> <PUBCHEM_BOND_DEF_STEREO_COUNT>
0

> <PUBCHEM_BOND_UDEF_STEREO_COUNT>
0

> <PUBCHEM_ISOTOPIC_ATOM_COUNT>
0

> <PUBCHEM_COMPONENT_COUNT>
1

> <PUBCHEM_CACTVS_TAUTO_COUNT>
-1

> <PUBCHEM_COORDINATE_TYPE>
1
5
255

> <PUBCHEM_BONDANNOTATIONS>
10  26  8
10  27  8
12  20  8
12  21  8
14  17  8
15  17  8
15  19  8
18  22  8
20  23  8
21  24  8
22  27  8
23  25  8
24  25  8
29  30  8
29  31  8
30  32  8
31  33  8
32  34  8
33  34  8
11  6  5
7  14  8
7  19  8
8  18  8
8  26  8

$$$$
