44375684
  -OEChem-03202505412D

 57 62  0     0  0  0  0  0  0999 V2000
    6.8455    2.0238    0.0000 S   0  0  0  0  0  0  0  0  0  0  0  0
    6.7485    2.6925    0.0000 O   0  0  0  0  0  0  0  0  0  0  0  0
    4.6844    5.5439    0.0000 O   0  0  0  0  0  0  0  0  0  0  0  0
    4.6783    0.4143    0.0000 N   0  0  0  0  0  0  0  0  0  0  0  0
    3.9639   -2.9754    0.0000 N   0  0  0  0  0  0  0  0  0  0  0  0
    5.9422    4.2816    0.0000 N   0  0  0  0  0  0  0  0  0  0  0  0
    3.6882   -4.7359    0.0000 N   0  0  0  0  0  0  0  0  0  0  0  0
    5.2262   -4.2332    0.0000 N   0  0  0  0  0  0  0  0  0  0  0  0
    5.2619    1.2190    0.0000 C   0  0  0  0  0  0  0  0  0  0  0  0
    3.7320    0.7190    0.0000 C   0  0  0  0  0  0  0  0  0  0  0  0
    4.9889   -0.5362    0.0000 C   0  0  0  0  0  0  0  0  0  0  0  0
    4.6783    2.0238    0.0000 C   0  0  0  0  0  0  0  0  0  0  0  0
    3.7320    1.7190    0.0000 C   0  0  0  0  0  0  0  0  0  0  0  0
    4.3211   -1.2805    0.0000 C   0  0  0  0  0  0  0  0  0  0  0  0
    6.2619    1.2190    0.0000 C   0  0  0  0  0  0  0  0  0  0  0  0
    4.9889    2.9743    0.0000 C   0  0  0  0  0  0  0  0  0  0  0  0
    4.6318   -2.2311    0.0000 C   0  0  0  0  0  0  0  0  0  0  0  0
    2.8660    0.2190    0.0000 C   0  0  0  0  0  0  0  0  0  0  0  0
    2.8660    2.2190    0.0000 C   0  0  0  0  0  0  0  0  0  0  0  0
    6.8455    0.4143    0.0000 C   0  0  0  0  0  0  0  0  0  0  0  0
    2.0000    0.7190    0.0000 C   0  0  0  0  0  0  0  0  0  0  0  0
    2.0000    1.7190    0.0000 C   0  0  0  0  0  0  0  0  0  0  0  0
    7.7917    0.7190    0.0000 C   0  0  0  0  0  0  0  0  0  0  0  0
    5.9405    3.2816    0.0000 C   0  0  0  0  0  0  0  0  0  0  0  0
    4.4026    3.7843    0.0000 C   0  0  0  0  0  0  0  0  0  0  0  0
    7.7917    1.7190    0.0000 C   0  0  0  0  0  0  0  0  0  0  0  0
    4.2746   -3.9259    0.0000 C   0  0  0  0  0  0  0  0  0  0  0  0
    4.9917    4.5923    0.0000 C   0  0  0  0  0  0  0  0  0  0  0  0
    8.6577    0.2190    0.0000 C   0  0  0  0  0  0  0  0  0  0  0  0
    4.2774   -5.5439    0.0000 C   0  0  0  0  0  0  0  0  0  0  0  0
    8.6577    2.2190    0.0000 C   0  0  0  0  0  0  0  0  0  0  0  0
    5.2279   -5.2332    0.0000 C   0  0  0  0  0  0  0  0  0  0  0  0
    9.5238    0.7190    0.0000 C   0  0  0  0  0  0  0  0  0  0  0  0
    9.5238    1.7190    0.0000 C   0  0  0  0  0  0  0  0  0  0  0  0
    5.3715   -1.0241    0.0000 H   0  0  0  0  0  0  0  0  0  0  0  0
    5.5359   -0.2442    0.0000 H   0  0  0  0  0  0  0  0  0  0  0  0
    3.9385   -0.7926    0.0000 H   0  0  0  0  0  0  0  0  0  0  0  0
    3.7742   -1.5725    0.0000 H   0  0  0  0  0  0  0  0  0  0  0  0
    5.0143   -2.7190    0.0000 H   0  0  0  0  0  0  0  0  0  0  0  0
    5.1787   -1.9390    0.0000 H   0  0  0  0  0  0  0  0  0  0  0  0
    2.8660   -0.4010    0.0000 H   0  0  0  0  0  0  0  0  0  0  0  0
    2.8660    2.8390    0.0000 H   0  0  0  0  0  0  0  0  0  0  0  0
    6.6529   -0.1750    0.0000 H   0  0  0  0  0  0  0  0  0  0  0  0
    1.4631    0.4090    0.0000 H   0  0  0  0  0  0  0  0  0  0  0  0
    1.4631    2.0290    0.0000 H   0  0  0  0  0  0  0  0  0  0  0  0
    3.7826    3.7854    0.0000 H   0  0  0  0  0  0  0  0  0  0  0  0
    3.3572   -2.8475    0.0000 H   0  0  0  0  0  0  0  0  0  0  0  0
    6.4445    4.6452    0.0000 H   0  0  0  0  0  0  0  0  0  0  0  0
    8.6577   -0.4010    0.0000 H   0  0  0  0  0  0  0  0  0  0  0  0
    3.7410   -5.8548    0.0000 H   0  0  0  0  0  0  0  0  0  0  0  0
    4.5305   -6.1099    0.0000 H   0  0  0  0  0  0  0  0  0  0  0  0
    8.6577    2.8390    0.0000 H   0  0  0  0  0  0  0  0  0  0  0  0
    3.0682   -4.7370    0.0000 H   0  0  0  0  0  0  0  0  0  0  0  0
    5.3578   -5.8395    0.0000 H   0  0  0  0  0  0  0  0  0  0  0  0
    5.8444   -5.1674    0.0000 H   0  0  0  0  0  0  0  0  0  0  0  0
   10.0607    0.4090    0.0000 H   0  0  0  0  0  0  0  0  0  0  0  0
   10.0607    2.0290    0.0000 H   0  0  0  0  0  0  0  0  0  0  0  0
  1 15  1  0  0  0  0
  1 26  1  0  0  0  0
  2 24  2  0  0  0  0
  3 28  2  0  0  0  0
  4  9  1  0  0  0  0
  4 10  1  0  0  0  0
  4 11  1  0  0  0  0
  5 17  1  0  0  0  0
  5 27  1  0  0  0  0
  5 47  1  0  0  0  0
  6 24  1  0  0  0  0
  6 28  1  0  0  0  0
  6 48  1  0  0  0  0
  7 27  1  0  0  0  0
  7 30  1  0  0  0  0
  7 53  1  0  0  0  0
  8 27  2  0  0  0  0
  8 32  1  0  0  0  0
  9 12  2  0  0  0  0
  9 15  1  0  0  0  0
 10 13  1  0  0  0  0
 10 18  2  0  0  0  0
 11 14  1  0  0  0  0
 11 35  1  0  0  0  0
 11 36  1  0  0  0  0
 12 13  1  0  0  0  0
 12 16  1  0  0  0  0
 13 19  2  0  0  0  0
 14 17  1  0  0  0  0
 14 37  1  0  0  0  0
 14 38  1  0  0  0  0
 15 20  2  0  0  0  0
 16 24  1  0  0  0  0
 16 25  2  0  0  0  0
 17 39  1  0  0  0  0
 17 40  1  0  0  0  0
 18 21  1  0  0  0  0
 18 41  1  0  0  0  0
 19 22  1  0  0  0  0
 19 42  1  0  0  0  0
 20 23  1  0  0  0  0
 20 43  1  0  0  0  0
 21 22  2  0  0  0  0
 21 44  1  0  0  0  0
 22 45  1  0  0  0  0
 23 26  1  0  0  0  0
 23 29  2  0  0  0  0
 25 28  1  0  0  0  0
 25 46  1  0  0  0  0
 26 31  2  0  0  0  0
 29 33  1  0  0  0  0
 29 49  1  0  0  0  0
 30 32  1  0  0  0  0
 30 50  1  0  0  0  0
 30 51  1  0  0  0  0
 31 34  1  0  0  0  0
 31 52  1  0  0  0  0
 32 54  1  0  0  0  0
 32 55  1  0  0  0  0
 33 34  2  0  0  0  0
 33 56  1  0  0  0  0
 34 57  1  0  0  0  0
M  END
> <PUBCHEM_COMPOUND_CID>
44375684

> <PUBCHEM_COMPOUND_CANONICALIZED>
1

> <PUBCHEM_CACTVS_COMPLEXITY>
875

> <PUBCHEM_CACTVS_HBOND_ACCEPTOR>
4

> <PUBCHEM_CACTVS_HBOND_DONOR>
3

> <PUBCHEM_CACTVS_ROTATABLE_BOND>
7

> <PUBCHEM_CACTVS_SUBSKEYS>
AAADceB7sABAAAAAAAAAAAAAAAAAAWJECAAwYAAAAAAAAFgB/gAAHgQQAAAADAjB3gQxwfPMEAisAyVydACDgKEhCjBJ2Lk4ZNiIYPLg3ZGUIAholCLoyYccicCegAAAAAAGAAAAAAAAAAwAAAAAAAAAAA==

> <PUBCHEM_IUPAC_OPENEYE_NAME>
3-[2-(benzothiophen-2-yl)-1-[3-(4,5-dihydro-1H-imidazol-2-ylamino)propyl]indol-3-yl]pyrrole-2,5-dione

> <PUBCHEM_IUPAC_CAS_NAME>
3-[2-(1-benzothiophen-2-yl)-1-[3-(4,5-dihydro-1H-imidazol-2-ylamino)propyl]-3-indolyl]pyrrole-2,5-dione

> <PUBCHEM_IUPAC_NAME_MARKUP>
3-[2-(1-benzothiophen-2-yl)-1-[3-(4,5-dihydro-1<I>H</I>-imidazol-2-ylamino)propyl]indol-3-yl]pyrrole-2,5-dione

> <PUBCHEM_IUPAC_NAME>
3-[2-(1-benzothiophen-2-yl)-1-[3-(4,5-dihydro-1H-imidazol-2-ylamino)propyl]indol-3-yl]pyrrole-2,5-dione

> <PUBCHEM_IUPAC_SYSTEMATIC_NAME>
3-[2-(1-benzothiophen-2-yl)-1-[3-(4,5-dihydro-1H-imidazol-2-ylamino)propyl]indol-3-yl]pyrrole-2,5-dione

> <PUBCHEM_IUPAC_TRADITIONAL_NAME>
3-[2-(benzothiophen-2-yl)-1-[3-(2-imidazolin-2-ylamino)propyl]indol-3-yl]-3-pyrroline-2,5-quinone

> <PUBCHEM_IUPAC_INCHI>
InChI=1S/C26H23N5O2S/c32-22-15-18(25(33)30-22)23-17-7-2-3-8-19(17)31(13-5-10-27-26-28-11-12-29-26)24(23)21-14-16-6-1-4-9-20(16)34-21/h1-4,6-9,14-15H,5,10-13H2,(H2,27,28,29)(H,30,32,33)

> <PUBCHEM_IUPAC_INCHIKEY>
XXDWSQPJTJZKSJ-UHFFFAOYSA-N

> <PUBCHEM_XLOGP3_AA>
2.8

> <PUBCHEM_EXACT_MASS>
469.15724617

> <PUBCHEM_MOLECULAR_FORMULA>
C26H23N5O2S

> <PUBCHEM_MOLECULAR_WEIGHT>
469.6

> <PUBCHEM_SMILES>
C1CN=C(N1)NCCCN2C3=CC=CC=C3C(=C2C4=CC5=CC=CC=C5S4)C6=CC(=O)NC6=O

> <PUBCHEM_OPENEYE_CAN_SMILES>
C1CN=C(N1)NCCCN2C3=CC=CC=C3C(=C2C4=CC5=CC=CC=C5S4)C6=CC(=O)NC6=O

> <PUBCHEM_OPENEYE_ISO_SMILES>
C1CN=C(N1)NCCCN2C3=CC=CC=C3C(=C2C4=CC5=CC=CC=C5S4)C6=CC(=O)NC6=O

> <PUBCHEM_CACTVS_TPSA>
116

> <PUBCHEM_MONOISOTOPIC_WEIGHT>
469.15724617

> <PUBCHEM_TOTAL_CHARGE>
0

> <PUBCHEM_HEAVY_ATOM_COUNT>
34

> <PUBCHEM_ATOM_DEF_STEREO_COUNT>
0

> <PUBCHEM_ATOM_UDEF_STEREO_COUNT>
0

> <PUBCHEM_BOND_DEF_STEREO_COUNT>
0

> <PUBCHEM_BOND_UDEF_STEREO_COUNT>
0

> <PUBCHEM_ISOTOPIC_ATOM_COUNT>
0

> <PUBCHEM_COMPONENT_COUNT>
1

> <PUBCHEM_CACTVS_TAUTO_COUNT>
-1

> <PUBCHEM_COORDINATE_TYPE>
1
5
255

> <PUBCHEM_BONDANNOTATIONS>
1  15  8
1  26  8
10  13  8
10  18  8
12  13  8
13  19  8
15  20  8
18  21  8
19  22  8
20  23  8
21  22  8
23  26  8
23  29  8
26  31  8
29  33  8
31  34  8
33  34  8
4  10  8
4  9  8
9  12  8

$$$$
