49830432
  -OEChem-03202501292D

 46 50  0     0  0  0  0  0  0999 V2000
    5.1646    0.6253    0.0000 N   0  0  0  0  0  0  0  0  0  0  0  0
    6.6428    1.2834    0.0000 N   0  0  0  0  0  0  0  0  0  0  0  0
    5.6646    1.4913    0.0000 N   0  0  0  0  0  0  0  0  0  0  0  0
   10.2916   -1.5159    0.0000 N   0  0  0  0  0  0  0  0  0  0  0  0
   10.8752   -0.7111    0.0000 N   0  0  0  0  0  0  0  0  0  0  0  0
   10.6022    1.0441    0.0000 N   0  0  0  0  0  0  0  0  0  0  0  0
    5.8338   -0.1179    0.0000 C   0  0  0  0  0  0  0  0  0  0  0  0
    6.7473    0.2889    0.0000 C   0  0  0  0  0  0  0  0  0  0  0  0
    7.6133   -0.2111    0.0000 C   0  0  0  0  0  0  0  0  0  0  0  0
    4.1701    0.5207    0.0000 C   0  0  0  0  0  0  0  0  0  0  0  0
    9.3454   -0.2111    0.0000 C   0  0  0  0  0  0  0  0  0  0  0  0
    5.6258   -1.0960    0.0000 C   0  0  0  0  0  0  0  0  0  0  0  0
    8.4793    0.2889    0.0000 C   0  0  0  0  0  0  0  0  0  0  0  0
    9.3454   -1.2111    0.0000 C   0  0  0  0  0  0  0  0  0  0  0  0
    7.6133   -1.2111    0.0000 C   0  0  0  0  0  0  0  0  0  0  0  0
    3.5823    1.3298    0.0000 C   0  0  0  0  0  0  0  0  0  0  0  0
    8.4793   -1.7111    0.0000 C   0  0  0  0  0  0  0  0  0  0  0  0
   10.2916    0.0936    0.0000 C   0  0  0  0  0  0  0  0  0  0  0  0
    4.6748   -1.4050    0.0000 C   0  0  0  0  0  0  0  0  0  0  0  0
    6.3690   -1.7652    0.0000 C   0  0  0  0  0  0  0  0  0  0  0  0
    2.5878    1.2252    0.0000 C   0  0  0  0  0  0  0  0  0  0  0  0
    3.9890    2.2433    0.0000 C   0  0  0  0  0  0  0  0  0  0  0  0
    4.4669   -2.3832    0.0000 C   0  0  0  0  0  0  0  0  0  0  0  0
    6.1611   -2.7433    0.0000 C   0  0  0  0  0  0  0  0  0  0  0  0
    5.2100   -3.0523    0.0000 C   0  0  0  0  0  0  0  0  0  0  0  0
    2.0000    2.0342    0.0000 C   0  0  0  0  0  0  0  0  0  0  0  0
    3.4013    3.0523    0.0000 C   0  0  0  0  0  0  0  0  0  0  0  0
    2.4067    2.9478    0.0000 C   0  0  0  0  0  0  0  0  0  0  0  0
    3.6128    0.2490    0.0000 H   0  0  0  0  0  0  0  0  0  0  0  0
    4.3410   -0.0752    0.0000 H   0  0  0  0  0  0  0  0  0  0  0  0
    8.4793    0.9089    0.0000 H   0  0  0  0  0  0  0  0  0  0  0  0
    7.0764   -1.5211    0.0000 H   0  0  0  0  0  0  0  0  0  0  0  0
    8.4793   -2.3311    0.0000 H   0  0  0  0  0  0  0  0  0  0  0  0
    4.2140   -0.9902    0.0000 H   0  0  0  0  0  0  0  0  0  0  0  0
    6.9586   -1.5736    0.0000 H   0  0  0  0  0  0  0  0  0  0  0  0
   10.4842   -2.1052    0.0000 H   0  0  0  0  0  0  0  0  0  0  0  0
    2.3356    0.6588    0.0000 H   0  0  0  0  0  0  0  0  0  0  0  0
    4.6056    2.3081    0.0000 H   0  0  0  0  0  0  0  0  0  0  0  0
    3.8772   -2.5748    0.0000 H   0  0  0  0  0  0  0  0  0  0  0  0
    6.6218   -3.1582    0.0000 H   0  0  0  0  0  0  0  0  0  0  0  0
    5.0811   -3.6588    0.0000 H   0  0  0  0  0  0  0  0  0  0  0  0
    1.3834    1.9694    0.0000 H   0  0  0  0  0  0  0  0  0  0  0  0
    3.6534    3.6187    0.0000 H   0  0  0  0  0  0  0  0  0  0  0  0
   11.2089    1.1720    0.0000 H   0  0  0  0  0  0  0  0  0  0  0  0
   10.1882    1.5056    0.0000 H   0  0  0  0  0  0  0  0  0  0  0  0
    2.0423    3.4494    0.0000 H   0  0  0  0  0  0  0  0  0  0  0  0
  1  3  1  0  0  0  0
  1  7  1  0  0  0  0
  1 10  1  0  0  0  0
  2  3  2  0  0  0  0
  2  8  1  0  0  0  0
  4  5  1  0  0  0  0
  4 14  1  0  0  0  0
  4 36  1  0  0  0  0
  5 18  2  0  0  0  0
  6 18  1  0  0  0  0
  6 44  1  0  0  0  0
  6 45  1  0  0  0  0
  7  8  2  0  0  0  0
  7 12  1  0  0  0  0
  8  9  1  0  0  0  0
  9 13  2  0  0  0  0
  9 15  1  0  0  0  0
 10 16  1  0  0  0  0
 10 29  1  0  0  0  0
 10 30  1  0  0  0  0
 11 13  1  0  0  0  0
 11 14  2  0  0  0  0
 11 18  1  0  0  0  0
 12 19  2  0  0  0  0
 12 20  1  0  0  0  0
 13 31  1  0  0  0  0
 14 17  1  0  0  0  0
 15 17  2  0  0  0  0
 15 32  1  0  0  0  0
 16 21  2  0  0  0  0
 16 22  1  0  0  0  0
 17 33  1  0  0  0  0
 19 23  1  0  0  0  0
 19 34  1  0  0  0  0
 20 24  2  0  0  0  0
 20 35  1  0  0  0  0
 21 26  1  0  0  0  0
 21 37  1  0  0  0  0
 22 27  2  0  0  0  0
 22 38  1  0  0  0  0
 23 25  2  0  0  0  0
 23 39  1  0  0  0  0
 24 25  1  0  0  0  0
 24 40  1  0  0  0  0
 25 41  1  0  0  0  0
 26 28  2  0  0  0  0
 26 42  1  0  0  0  0
 27 28  1  0  0  0  0
 27 43  1  0  0  0  0
 28 46  1  0  0  0  0
M  END
> <PUBCHEM_COMPOUND_CID>
49830432

> <PUBCHEM_COMPOUND_CANONICALIZED>
1

> <PUBCHEM_CACTVS_COMPLEXITY>
503

> <PUBCHEM_CACTVS_HBOND_ACCEPTOR>
4

> <PUBCHEM_CACTVS_HBOND_DONOR>
2

> <PUBCHEM_CACTVS_ROTATABLE_BOND>
4

> <PUBCHEM_CACTVS_SUBSKEYS>
AAADceB7gAAAAAAAAAAAAAAAAAAAAWLAAAAwYMAAAAAAAFgB/AAAHAAYAAAADAjBHgQx8PJrAACiAyZiZACSBAYhkgAc+SA4dJgIYKLA0dGUpAhwmADIyAcQgMAOCAACAAACAAAQAAQAAAQAAAAAAAAAAA==

> <PUBCHEM_IUPAC_OPENEYE_NAME>
5-(1-benzyl-5-phenyl-triazol-4-yl)-1H-indazol-3-amine

> <PUBCHEM_IUPAC_CAS_NAME>
5-[5-phenyl-1-(phenylmethyl)-4-triazolyl]-1H-indazol-3-amine

> <PUBCHEM_IUPAC_NAME_MARKUP>
5-(1-benzyl-5-phenyltriazol-4-yl)-1<I>H</I>-indazol-3-amine

> <PUBCHEM_IUPAC_NAME>
5-(1-benzyl-5-phenyltriazol-4-yl)-1H-indazol-3-amine

> <PUBCHEM_IUPAC_SYSTEMATIC_NAME>
5-[5-phenyl-1-(phenylmethyl)-1,2,3-triazol-4-yl]-1H-indazol-3-amine

> <PUBCHEM_IUPAC_TRADITIONAL_NAME>
[5-(1-benzyl-5-phenyl-triazol-4-yl)-1H-indazol-3-yl]amine

> <PUBCHEM_IUPAC_INCHI>
InChI=1S/C22H18N6/c23-22-18-13-17(11-12-19(18)24-26-22)20-21(16-9-5-2-6-10-16)28(27-25-20)14-15-7-3-1-4-8-15/h1-13H,14H2,(H3,23,24,26)

> <PUBCHEM_IUPAC_INCHIKEY>
XSDJOIOVIMPMHD-UHFFFAOYSA-N

> <PUBCHEM_XLOGP3_AA>
3.9

> <PUBCHEM_EXACT_MASS>
366.15929460

> <PUBCHEM_MOLECULAR_FORMULA>
C22H18N6

> <PUBCHEM_MOLECULAR_WEIGHT>
366.4

> <PUBCHEM_SMILES>
C1=CC=C(C=C1)CN2C(=C(N=N2)C3=CC4=C(C=C3)NN=C4N)C5=CC=CC=C5

> <PUBCHEM_OPENEYE_CAN_SMILES>
C1=CC=C(C=C1)CN2C(=C(N=N2)C3=CC4=C(C=C3)NN=C4N)C5=CC=CC=C5

> <PUBCHEM_OPENEYE_ISO_SMILES>
C1=CC=C(C=C1)CN2C(=C(N=N2)C3=CC4=C(C=C3)NN=C4N)C5=CC=CC=C5

> <PUBCHEM_CACTVS_TPSA>
85.4

> <PUBCHEM_MONOISOTOPIC_WEIGHT>
366.15929460

> <PUBCHEM_TOTAL_CHARGE>
0

> <PUBCHEM_HEAVY_ATOM_COUNT>
28

> <PUBCHEM_ATOM_DEF_STEREO_COUNT>
0

> <PUBCHEM_ATOM_UDEF_STEREO_COUNT>
0

> <PUBCHEM_BOND_DEF_STEREO_COUNT>
0

> <PUBCHEM_BOND_UDEF_STEREO_COUNT>
0

> <PUBCHEM_ISOTOPIC_ATOM_COUNT>
0

> <PUBCHEM_COMPONENT_COUNT>
1

> <PUBCHEM_CACTVS_TAUTO_COUNT>
-1

> <PUBCHEM_COORDINATE_TYPE>
1
5
255

> <PUBCHEM_BONDANNOTATIONS>
1  3  8
1  7  8
11  13  8
11  14  8
11  18  8
12  19  8
12  20  8
14  17  8
15  17  8
16  21  8
16  22  8
19  23  8
2  3  8
2  8  8
20  24  8
21  26  8
22  27  8
23  25  8
24  25  8
26  28  8
27  28  8
4  14  8
4  5  8
5  18  8
7  8  8
9  13  8
9  15  8

$$$$
