11544961
  -OEChem-03202505122D

 45 48  0     0  0  0  0  0  0999 V2000
    3.7320    0.9470    0.0000 O   0  0  0  0  0  0  0  0  0  0  0  0
    7.2764   -4.8577    0.0000 N   0  0  0  0  0  0  0  0  0  0  0  0
    7.8600   -4.0530    0.0000 N   0  0  0  0  0  0  0  0  0  0  0  0
    4.5981   -4.5530    0.0000 N   0  0  0  0  0  0  0  0  0  0  0  0
    5.4641    0.9470    0.0000 N   0  0  0  0  0  0  0  0  0  0  0  0
    7.5870   -2.2977    0.0000 N   0  0  0  0  0  0  0  0  0  0  0  0
    4.5981    2.4470    0.0000 N   0  0  0  0  0  0  0  0  0  0  0  0
    6.3301   -3.5530    0.0000 C   0  0  0  0  0  0  0  0  0  0  0  0
    5.4641   -3.0530    0.0000 C   0  0  0  0  0  0  0  0  0  0  0  0
    5.4641   -2.0530    0.0000 C   0  0  0  0  0  0  0  0  0  0  0  0
    6.3301   -4.5530    0.0000 C   0  0  0  0  0  0  0  0  0  0  0  0
    7.2764   -3.2482    0.0000 C   0  0  0  0  0  0  0  0  0  0  0  0
    4.5981   -1.5530    0.0000 C   0  0  0  0  0  0  0  0  0  0  0  0
    6.3301   -1.5530    0.0000 C   0  0  0  0  0  0  0  0  0  0  0  0
    4.5981   -3.5530    0.0000 C   0  0  0  0  0  0  0  0  0  0  0  0
    5.4641   -0.0530    0.0000 C   0  0  0  0  0  0  0  0  0  0  0  0
    5.4641   -5.0530    0.0000 C   0  0  0  0  0  0  0  0  0  0  0  0
    4.5981   -0.5530    0.0000 C   0  0  0  0  0  0  0  0  0  0  0  0
    6.3301   -0.5530    0.0000 C   0  0  0  0  0  0  0  0  0  0  0  0
    3.7320    2.9470    0.0000 C   0  0  0  0  0  0  0  0  0  0  0  0
    4.5981    1.4470    0.0000 C   0  0  0  0  0  0  0  0  0  0  0  0
    2.8660    4.4470    0.0000 C   0  0  0  0  0  0  0  0  0  0  0  0
    3.7320    3.9470    0.0000 C   0  0  0  0  0  0  0  0  0  0  0  0
    2.8660    2.4470    0.0000 C   0  0  0  0  0  0  0  0  0  0  0  0
    2.0000    3.9470    0.0000 C   0  0  0  0  0  0  0  0  0  0  0  0
    2.0000    2.9470    0.0000 C   0  0  0  0  0  0  0  0  0  0  0  0
    2.8660    5.4470    0.0000 C   0  0  0  0  0  0  0  0  0  0  0  0
    4.0611   -1.8630    0.0000 H   0  0  0  0  0  0  0  0  0  0  0  0
    6.8671   -1.8630    0.0000 H   0  0  0  0  0  0  0  0  0  0  0  0
    4.0611   -3.2430    0.0000 H   0  0  0  0  0  0  0  0  0  0  0  0
    7.4690   -5.4470    0.0000 H   0  0  0  0  0  0  0  0  0  0  0  0
    5.4641   -5.6730    0.0000 H   0  0  0  0  0  0  0  0  0  0  0  0
    4.0611   -0.2430    0.0000 H   0  0  0  0  0  0  0  0  0  0  0  0
    6.8671   -0.2430    0.0000 H   0  0  0  0  0  0  0  0  0  0  0  0
    6.0010    1.2570    0.0000 H   0  0  0  0  0  0  0  0  0  0  0  0
    8.1937   -2.1699    0.0000 H   0  0  0  0  0  0  0  0  0  0  0  0
    7.1730   -1.8362    0.0000 H   0  0  0  0  0  0  0  0  0  0  0  0
    4.2690    4.2570    0.0000 H   0  0  0  0  0  0  0  0  0  0  0  0
    5.1350    2.7570    0.0000 H   0  0  0  0  0  0  0  0  0  0  0  0
    2.8660    1.8270    0.0000 H   0  0  0  0  0  0  0  0  0  0  0  0
    1.4631    4.2570    0.0000 H   0  0  0  0  0  0  0  0  0  0  0  0
    1.4631    2.6370    0.0000 H   0  0  0  0  0  0  0  0  0  0  0  0
    3.4860    5.4470    0.0000 H   0  0  0  0  0  0  0  0  0  0  0  0
    2.8660    6.0670    0.0000 H   0  0  0  0  0  0  0  0  0  0  0  0
    2.2460    5.4470    0.0000 H   0  0  0  0  0  0  0  0  0  0  0  0
  1 21  2  0  0  0  0
  2  3  1  0  0  0  0
  2 11  1  0  0  0  0
  2 31  1  0  0  0  0
  3 12  2  0  0  0  0
  4 15  1  0  0  0  0
  4 17  2  0  0  0  0
  5 16  1  0  0  0  0
  5 21  1  0  0  0  0
  5 35  1  0  0  0  0
  6 12  1  0  0  0  0
  6 36  1  0  0  0  0
  6 37  1  0  0  0  0
  7 20  1  0  0  0  0
  7 21  1  0  0  0  0
  7 39  1  0  0  0  0
  8  9  1  0  0  0  0
  8 11  2  0  0  0  0
  8 12  1  0  0  0  0
  9 10  1  0  0  0  0
  9 15  2  0  0  0  0
 10 13  2  0  0  0  0
 10 14  1  0  0  0  0
 11 17  1  0  0  0  0
 13 18  1  0  0  0  0
 13 28  1  0  0  0  0
 14 19  2  0  0  0  0
 14 29  1  0  0  0  0
 15 30  1  0  0  0  0
 16 18  2  0  0  0  0
 16 19  1  0  0  0  0
 17 32  1  0  0  0  0
 18 33  1  0  0  0  0
 19 34  1  0  0  0  0
 20 23  1  0  0  0  0
 20 24  2  0  0  0  0
 22 23  2  0  0  0  0
 22 25  1  0  0  0  0
 22 27  1  0  0  0  0
 23 38  1  0  0  0  0
 24 26  1  0  0  0  0
 24 40  1  0  0  0  0
 25 26  2  0  0  0  0
 25 41  1  0  0  0  0
 26 42  1  0  0  0  0
 27 43  1  0  0  0  0
 27 44  1  0  0  0  0
 27 45  1  0  0  0  0
M  END
> <PUBCHEM_COMPOUND_CID>
11544961

> <PUBCHEM_COMPOUND_CANONICALIZED>
1

> <PUBCHEM_CACTVS_COMPLEXITY>
509

> <PUBCHEM_CACTVS_HBOND_ACCEPTOR>
4

> <PUBCHEM_CACTVS_HBOND_DONOR>
4

> <PUBCHEM_CACTVS_ROTATABLE_BOND>
3

> <PUBCHEM_CACTVS_SUBSKEYS>
AAADceB7oAAAAAAAAAAAAAAAAAAAAWAAAAA8YIAAAAAAAFgB/AAAHgAYAAAADAjBHgQ/8PLrEACqAzZndACShCYxEiAc+SA4dJiIYGLA0dGUpAh4nALIyCcQgMAOiAAAQAAAAAAQAACAAAAAAAAAAAAAAA==

> <PUBCHEM_IUPAC_OPENEYE_NAME>
1-[4-(3-amino-1H-pyrazolo[3,4-c]pyridin-4-yl)phenyl]-3-(m-tolyl)urea

> <PUBCHEM_IUPAC_CAS_NAME>
1-[4-(3-amino-1H-pyrazolo[3,4-c]pyridin-4-yl)phenyl]-3-(3-methylphenyl)urea

> <PUBCHEM_IUPAC_NAME_MARKUP>
1-[4-(3-amino-1<I>H</I>-pyrazolo[3,4-c]pyridin-4-yl)phenyl]-3-(3-methylphenyl)urea

> <PUBCHEM_IUPAC_NAME>
1-[4-(3-amino-1H-pyrazolo[3,4-c]pyridin-4-yl)phenyl]-3-(3-methylphenyl)urea

> <PUBCHEM_IUPAC_SYSTEMATIC_NAME>
1-[4-(3-azanyl-1H-pyrazolo[3,4-c]pyridin-4-yl)phenyl]-3-(3-methylphenyl)urea

> <PUBCHEM_IUPAC_TRADITIONAL_NAME>
1-[4-(3-amino-1H-pyrazolo[3,4-c]pyridin-4-yl)phenyl]-3-(m-tolyl)urea

> <PUBCHEM_IUPAC_INCHI>
InChI=1S/C20H18N6O/c1-12-3-2-4-15(9-12)24-20(27)23-14-7-5-13(6-8-14)16-10-22-11-17-18(16)19(21)26-25-17/h2-11H,1H3,(H3,21,25,26)(H2,23,24,27)

> <PUBCHEM_IUPAC_INCHIKEY>
FOONBYIHFUMRSX-UHFFFAOYSA-N

> <PUBCHEM_XLOGP3_AA>
2.7

> <PUBCHEM_EXACT_MASS>
358.15420922

> <PUBCHEM_MOLECULAR_FORMULA>
C20H18N6O

> <PUBCHEM_MOLECULAR_WEIGHT>
358.4

> <PUBCHEM_SMILES>
CC1=CC(=CC=C1)NC(=O)NC2=CC=C(C=C2)C3=CN=CC4=C3C(=NN4)N

> <PUBCHEM_OPENEYE_CAN_SMILES>
CC1=CC(=CC=C1)NC(=O)NC2=CC=C(C=C2)C3=CN=CC4=C3C(=NN4)N

> <PUBCHEM_OPENEYE_ISO_SMILES>
CC1=CC(=CC=C1)NC(=O)NC2=CC=C(C=C2)C3=CN=CC4=C3C(=NN4)N

> <PUBCHEM_CACTVS_TPSA>
109

> <PUBCHEM_MONOISOTOPIC_WEIGHT>
358.15420922

> <PUBCHEM_TOTAL_CHARGE>
0

> <PUBCHEM_HEAVY_ATOM_COUNT>
27

> <PUBCHEM_ATOM_DEF_STEREO_COUNT>
0

> <PUBCHEM_ATOM_UDEF_STEREO_COUNT>
0

> <PUBCHEM_BOND_DEF_STEREO_COUNT>
0

> <PUBCHEM_BOND_UDEF_STEREO_COUNT>
0

> <PUBCHEM_ISOTOPIC_ATOM_COUNT>
0

> <PUBCHEM_COMPONENT_COUNT>
1

> <PUBCHEM_CACTVS_TAUTO_COUNT>
-1

> <PUBCHEM_COORDINATE_TYPE>
1
5
255

> <PUBCHEM_BONDANNOTATIONS>
10  13  8
10  14  8
11  17  8
13  18  8
14  19  8
16  18  8
16  19  8
2  11  8
2  3  8
20  23  8
20  24  8
22  23  8
22  25  8
24  26  8
25  26  8
3  12  8
4  15  8
4  17  8
8  11  8
8  12  8
8  9  8
9  15  8

$$$$
