49830708
  -OEChem-03202502312D

 41 43  0     1  0  0  0  0  0999 V2000
    6.3776    1.9920    0.0000 S   0  0  0  0  0  0  0  0  0  0  0  0
    2.0000   -2.6012    0.0000 O   0  0  0  0  0  0  0  0  0  0  0  0
    3.7320    2.3988    0.0000 O   0  0  0  0  0  0  0  0  0  0  0  0
    4.5981    0.8988    0.0000 N   0  0  0  0  0  0  0  0  0  0  0  0
    6.5468    3.6012    0.0000 N   0  0  0  0  0  0  0  0  0  0  0  0
   10.0303    2.4216    0.0000 N   0  0  0  0  0  0  0  0  0  0  0  0
    3.7320    0.3988    0.0000 C   0  0  3  0  0  0  0  0  0  0  0  0
    3.7320   -0.6012    0.0000 C   0  0  0  0  0  0  0  0  0  0  0  0
    2.8660    0.8988    0.0000 C   0  0  0  0  0  0  0  0  0  0  0  0
    2.8660   -1.1012    0.0000 C   0  0  0  0  0  0  0  0  0  0  0  0
    4.5981   -1.1012    0.0000 C   0  0  0  0  0  0  0  0  0  0  0  0
    4.5981    1.8988    0.0000 C   0  0  0  0  0  0  0  0  0  0  0  0
    2.8660   -2.1012    0.0000 C   0  0  0  0  0  0  0  0  0  0  0  0
    4.5981   -2.1012    0.0000 C   0  0  0  0  0  0  0  0  0  0  0  0
    5.4641    2.3988    0.0000 C   0  0  0  0  0  0  0  0  0  0  0  0
    3.7320   -2.6012    0.0000 C   0  0  0  0  0  0  0  0  0  0  0  0
    7.0468    2.7352    0.0000 C   0  0  0  0  0  0  0  0  0  0  0  0
    5.5686    3.3933    0.0000 C   0  0  0  0  0  0  0  0  0  0  0  0
    8.0413    2.6307    0.0000 C   0  0  0  0  0  0  0  0  0  0  0  0
    8.4480    1.7171    0.0000 C   0  0  0  0  0  0  0  0  0  0  0  0
    8.6291    3.4397    0.0000 C   0  0  0  0  0  0  0  0  0  0  0  0
    2.0000   -3.6012    0.0000 C   0  0  0  0  0  0  0  0  0  0  0  0
    9.4426    1.6126    0.0000 C   0  0  0  0  0  0  0  0  0  0  0  0
    9.6236    3.3352    0.0000 C   0  0  0  0  0  0  0  0  0  0  0  0
    3.7320    1.0188    0.0000 H   0  0  0  0  0  0  0  0  0  0  0  0
    3.1760    1.4357    0.0000 H   0  0  0  0  0  0  0  0  0  0  0  0
    2.3291    1.2088    0.0000 H   0  0  0  0  0  0  0  0  0  0  0  0
    2.5560    0.3618    0.0000 H   0  0  0  0  0  0  0  0  0  0  0  0
    5.1350    0.5888    0.0000 H   0  0  0  0  0  0  0  0  0  0  0  0
    2.3291   -0.7912    0.0000 H   0  0  0  0  0  0  0  0  0  0  0  0
    5.1350   -0.7912    0.0000 H   0  0  0  0  0  0  0  0  0  0  0  0
    5.1350   -2.4112    0.0000 H   0  0  0  0  0  0  0  0  0  0  0  0
    3.7320   -3.2212    0.0000 H   0  0  0  0  0  0  0  0  0  0  0  0
    5.1079    3.8082    0.0000 H   0  0  0  0  0  0  0  0  0  0  0  0
    8.0836    1.2155    0.0000 H   0  0  0  0  0  0  0  0  0  0  0  0
    8.3769    4.0061    0.0000 H   0  0  0  0  0  0  0  0  0  0  0  0
    1.3800   -3.6012    0.0000 H   0  0  0  0  0  0  0  0  0  0  0  0
    2.0000   -4.2212    0.0000 H   0  0  0  0  0  0  0  0  0  0  0  0
    2.6200   -3.6012    0.0000 H   0  0  0  0  0  0  0  0  0  0  0  0
    9.6947    1.0462    0.0000 H   0  0  0  0  0  0  0  0  0  0  0  0
    9.9880    3.8367    0.0000 H   0  0  0  0  0  0  0  0  0  0  0  0
  1 15  1  0  0  0  0
  1 17  1  0  0  0  0
  2 13  1  0  0  0  0
  2 22  1  0  0  0  0
  3 12  2  0  0  0  0
  4  7  1  0  0  0  0
  4 12  1  0  0  0  0
  4 29  1  0  0  0  0
  5 17  2  0  0  0  0
  5 18  1  0  0  0  0
  6 23  2  0  0  0  0
  6 24  1  0  0  0  0
  7  8  1  0  0  0  0
  7  9  1  0  0  0  0
  7 25  1  0  0  0  0
  8 10  2  0  0  0  0
  8 11  1  0  0  0  0
  9 26  1  0  0  0  0
  9 27  1  0  0  0  0
  9 28  1  0  0  0  0
 10 13  1  0  0  0  0
 10 30  1  0  0  0  0
 11 14  2  0  0  0  0
 11 31  1  0  0  0  0
 12 15  1  0  0  0  0
 13 16  2  0  0  0  0
 14 16  1  0  0  0  0
 14 32  1  0  0  0  0
 15 18  2  0  0  0  0
 16 33  1  0  0  0  0
 17 19  1  0  0  0  0
 18 34  1  0  0  0  0
 19 20  2  0  0  0  0
 19 21  1  0  0  0  0
 20 23  1  0  0  0  0
 20 35  1  0  0  0  0
 21 24  2  0  0  0  0
 21 36  1  0  0  0  0
 22 37  1  0  0  0  0
 22 38  1  0  0  0  0
 22 39  1  0  0  0  0
 23 40  1  0  0  0  0
 24 41  1  0  0  0  0
M  END
> <PUBCHEM_COMPOUND_CID>
49830708

> <PUBCHEM_COMPOUND_CANONICALIZED>
1

> <PUBCHEM_CACTVS_COMPLEXITY>
417

> <PUBCHEM_CACTVS_HBOND_ACCEPTOR>
5

> <PUBCHEM_CACTVS_HBOND_DONOR>
1

> <PUBCHEM_CACTVS_ROTATABLE_BOND>
5

> <PUBCHEM_CACTVS_SUBSKEYS>
AAADceB7MABAAAAAAAAAAAAAAAAAAWAAAAA8QAAAAAAAAAAB8AAAHgQQAAAADCzB2gY+h5LIFAisAjF3VACC+KB1KjhI2K0+bNgMJurk8ZuEMKhk1hHo6MewwLAOAAABAAAAAAAAAAIAAAAAAAAAAAAAAA==

> <PUBCHEM_IUPAC_OPENEYE_NAME>
N-[1-(3-methoxyphenyl)ethyl]-2-(4-pyridyl)thiazole-5-carboxamide

> <PUBCHEM_IUPAC_CAS_NAME>
N-[1-(3-methoxyphenyl)ethyl]-2-pyridin-4-yl-5-thiazolecarboxamide

> <PUBCHEM_IUPAC_NAME_MARKUP>
<I>N</I>-[1-(3-methoxyphenyl)ethyl]-2-pyridin-4-yl-1,3-thiazole-5-carboxamide

> <PUBCHEM_IUPAC_NAME>
N-[1-(3-methoxyphenyl)ethyl]-2-pyridin-4-yl-1,3-thiazole-5-carboxamide

> <PUBCHEM_IUPAC_SYSTEMATIC_NAME>
N-[1-(3-methoxyphenyl)ethyl]-2-pyridin-4-yl-1,3-thiazole-5-carboxamide

> <PUBCHEM_IUPAC_TRADITIONAL_NAME>
N-[1-(3-methoxyphenyl)ethyl]-2-(4-pyridyl)thiazole-5-carboxamide

> <PUBCHEM_IUPAC_INCHI>
InChI=1S/C18H17N3O2S/c1-12(14-4-3-5-15(10-14)23-2)21-17(22)16-11-20-18(24-16)13-6-8-19-9-7-13/h3-12H,1-2H3,(H,21,22)

> <PUBCHEM_IUPAC_INCHIKEY>
LWBSSNRDDDFHSH-UHFFFAOYSA-N

> <PUBCHEM_XLOGP3_AA>
3

> <PUBCHEM_EXACT_MASS>
339.10414797

> <PUBCHEM_MOLECULAR_FORMULA>
C18H17N3O2S

> <PUBCHEM_MOLECULAR_WEIGHT>
339.4

> <PUBCHEM_SMILES>
CC(C1=CC(=CC=C1)OC)NC(=O)C2=CN=C(S2)C3=CC=NC=C3

> <PUBCHEM_OPENEYE_CAN_SMILES>
CC(C1=CC(=CC=C1)OC)NC(=O)C2=CN=C(S2)C3=CC=NC=C3

> <PUBCHEM_OPENEYE_ISO_SMILES>
CC(C1=CC(=CC=C1)OC)NC(=O)C2=CN=C(S2)C3=CC=NC=C3

> <PUBCHEM_CACTVS_TPSA>
92.4

> <PUBCHEM_MONOISOTOPIC_WEIGHT>
339.10414797

> <PUBCHEM_TOTAL_CHARGE>
0

> <PUBCHEM_HEAVY_ATOM_COUNT>
24

> <PUBCHEM_ATOM_DEF_STEREO_COUNT>
0

> <PUBCHEM_ATOM_UDEF_STEREO_COUNT>
1

> <PUBCHEM_BOND_DEF_STEREO_COUNT>
0

> <PUBCHEM_BOND_UDEF_STEREO_COUNT>
0

> <PUBCHEM_ISOTOPIC_ATOM_COUNT>
0

> <PUBCHEM_COMPONENT_COUNT>
1

> <PUBCHEM_CACTVS_TAUTO_COUNT>
-1

> <PUBCHEM_COORDINATE_TYPE>
1
5
255

> <PUBCHEM_BONDANNOTATIONS>
1  15  8
1  17  8
10  13  8
11  14  8
13  16  8
14  16  8
15  18  8
19  20  8
19  21  8
20  23  8
21  24  8
5  17  8
5  18  8
6  23  8
6  24  8
7  9  3
8  10  8
8  11  8

$$$$
