10005638
  -OEChem-03192523272D

 64 68  0     0  0  0  0  0  0999 V2000
    2.5068    2.7174    0.0000 F   0  0  0  0  0  0  0  0  0  0  0  0
    3.3203    4.5444    0.0000 F   0  0  0  0  0  0  0  0  0  0  0  0
    2.0000    4.0376    0.0000 F   0  0  0  0  0  0  0  0  0  0  0  0
    3.6133   -0.7543    0.0000 O   0  0  0  0  0  0  0  0  0  0  0  0
    4.1133   -3.6203    0.0000 N   0  0  0  0  0  0  0  0  0  0  0  0
    7.8519    3.1309    0.0000 N   0  0  0  0  0  0  0  0  0  0  0  0
    5.8157    0.3284    0.0000 N   0  0  0  0  0  0  0  0  0  0  0  0
    4.2066    0.1593    0.0000 N   0  0  0  0  0  0  0  0  0  0  0  0
    6.8338    1.7296    0.0000 N   0  0  0  0  0  0  0  0  0  0  0  0
    8.5564    1.5486    0.0000 N   0  0  0  0  0  0  0  0  0  0  0  0
    4.1133   -1.6203    0.0000 C   0  0  0  0  0  0  0  0  0  0  0  0
    4.9793   -2.1203    0.0000 C   0  0  0  0  0  0  0  0  0  0  0  0
    3.2473   -2.1203    0.0000 C   0  0  0  0  0  0  0  0  0  0  0  0
    8.7654    3.5376    0.0000 C   0  0  0  0  0  0  0  0  0  0  0  0
    4.9793   -3.1203    0.0000 C   0  0  0  0  0  0  0  0  0  0  0  0
    3.2473   -3.1203    0.0000 C   0  0  0  0  0  0  0  0  0  0  0  0
    9.6314    3.0376    0.0000 C   0  0  0  0  0  0  0  0  0  0  0  0
    8.9733    4.5158    0.0000 C   0  0  0  0  0  0  0  0  0  0  0  0
   10.3746    3.7068    0.0000 C   0  0  0  0  0  0  0  0  0  0  0  0
    9.9678    4.6203    0.0000 C   0  0  0  0  0  0  0  0  0  0  0  0
    4.6133   -0.7543    0.0000 C   0  0  0  0  0  0  0  0  0  0  0  0
    5.6078   -0.6498    0.0000 C   0  0  0  0  0  0  0  0  0  0  0  0
    4.1133   -4.6203    0.0000 C   0  0  0  0  0  0  0  0  0  0  0  0
    4.9497    0.8284    0.0000 C   0  0  0  0  0  0  0  0  0  0  0  0
    7.7473    2.1364    0.0000 C   0  0  0  0  0  0  0  0  0  0  0  0
    6.7293    0.7351    0.0000 C   0  0  0  0  0  0  0  0  0  0  0  0
    4.8452    1.8229    0.0000 C   0  0  0  0  0  0  0  0  0  0  0  0
    7.5383    0.1473    0.0000 C   0  0  0  0  0  0  0  0  0  0  0  0
    8.4518    0.5541    0.0000 C   0  0  0  0  0  0  0  0  0  0  0  0
    3.9316    2.2296    0.0000 C   0  0  0  0  0  0  0  0  0  0  0  0
    5.6542    2.4107    0.0000 C   0  0  0  0  0  0  0  0  0  0  0  0
    3.8271    3.2242    0.0000 C   0  0  0  0  0  0  0  0  0  0  0  0
    5.5496    3.4052    0.0000 C   0  0  0  0  0  0  0  0  0  0  0  0
    4.6361    3.8120    0.0000 C   0  0  0  0  0  0  0  0  0  0  0  0
    2.9136    3.6309    0.0000 C   0  0  0  0  0  0  0  0  0  0  0  0
    5.5899   -2.2280    0.0000 H   0  0  0  0  0  0  0  0  0  0  0  0
    5.1914   -1.5377    0.0000 H   0  0  0  0  0  0  0  0  0  0  0  0
    3.0352   -1.5377    0.0000 H   0  0  0  0  0  0  0  0  0  0  0  0
    2.6367   -2.2280    0.0000 H   0  0  0  0  0  0  0  0  0  0  0  0
    8.7330    2.9185    0.0000 H   0  0  0  0  0  0  0  0  0  0  0  0
    5.1914   -3.7029    0.0000 H   0  0  0  0  0  0  0  0  0  0  0  0
    5.5899   -3.0126    0.0000 H   0  0  0  0  0  0  0  0  0  0  0  0
    2.6367   -3.0126    0.0000 H   0  0  0  0  0  0  0  0  0  0  0  0
    3.0352   -3.7029    0.0000 H   0  0  0  0  0  0  0  0  0  0  0  0
    9.2670    2.5360    0.0000 H   0  0  0  0  0  0  0  0  0  0  0  0
   10.0922    2.6228    0.0000 H   0  0  0  0  0  0  0  0  0  0  0  0
    8.9733    5.1358    0.0000 H   0  0  0  0  0  0  0  0  0  0  0  0
    8.3567    4.5806    0.0000 H   0  0  0  0  0  0  0  0  0  0  0  0
   10.7390    3.2052    0.0000 H   0  0  0  0  0  0  0  0  0  0  0  0
   10.9115    4.0168    0.0000 H   0  0  0  0  0  0  0  0  0  0  0  0
   10.5575    4.8119    0.0000 H   0  0  0  0  0  0  0  0  0  0  0  0
    9.8389    5.2268    0.0000 H   0  0  0  0  0  0  0  0  0  0  0  0
    7.3503    3.4953    0.0000 H   0  0  0  0  0  0  0  0  0  0  0  0
    6.0227   -1.1105    0.0000 H   0  0  0  0  0  0  0  0  0  0  0  0
    2.9933   -0.7543    0.0000 H   0  0  0  0  0  0  0  0  0  0  0  0
    3.4933   -4.6203    0.0000 H   0  0  0  0  0  0  0  0  0  0  0  0
    4.1133   -5.2403    0.0000 H   0  0  0  0  0  0  0  0  0  0  0  0
    4.7333   -4.6203    0.0000 H   0  0  0  0  0  0  0  0  0  0  0  0
    7.4735   -0.4693    0.0000 H   0  0  0  0  0  0  0  0  0  0  0  0
    8.9534    0.1896    0.0000 H   0  0  0  0  0  0  0  0  0  0  0  0
    3.4300    1.8652    0.0000 H   0  0  0  0  0  0  0  0  0  0  0  0
    6.2206    2.1585    0.0000 H   0  0  0  0  0  0  0  0  0  0  0  0
    6.0512    3.7696    0.0000 H   0  0  0  0  0  0  0  0  0  0  0  0
    4.5713    4.4286    0.0000 H   0  0  0  0  0  0  0  0  0  0  0  0
  1 35  1  0  0  0  0
  2 35  1  0  0  0  0
  3 35  1  0  0  0  0
  4 11  1  0  0  0  0
  4 55  1  0  0  0  0
  5 15  1  0  0  0  0
  5 16  1  0  0  0  0
  5 23  1  0  0  0  0
  6 14  1  0  0  0  0
  6 25  1  0  0  0  0
  6 53  1  0  0  0  0
  7 22  1  0  0  0  0
  7 24  1  0  0  0  0
  7 26  1  0  0  0  0
  8 21  1  0  0  0  0
  8 24  2  0  0  0  0
  9 25  1  0  0  0  0
  9 26  2  0  0  0  0
 10 25  2  0  0  0  0
 10 29  1  0  0  0  0
 11 12  1  0  0  0  0
 11 13  1  0  0  0  0
 11 21  1  0  0  0  0
 12 15  1  0  0  0  0
 12 36  1  0  0  0  0
 12 37  1  0  0  0  0
 13 16  1  0  0  0  0
 13 38  1  0  0  0  0
 13 39  1  0  0  0  0
 14 17  1  0  0  0  0
 14 18  1  0  0  0  0
 14 40  1  0  0  0  0
 15 41  1  0  0  0  0
 15 42  1  0  0  0  0
 16 43  1  0  0  0  0
 16 44  1  0  0  0  0
 17 19  1  0  0  0  0
 17 45  1  0  0  0  0
 17 46  1  0  0  0  0
 18 20  1  0  0  0  0
 18 47  1  0  0  0  0
 18 48  1  0  0  0  0
 19 20  1  0  0  0  0
 19 49  1  0  0  0  0
 19 50  1  0  0  0  0
 20 51  1  0  0  0  0
 20 52  1  0  0  0  0
 21 22  2  0  0  0  0
 22 54  1  0  0  0  0
 23 56  1  0  0  0  0
 23 57  1  0  0  0  0
 23 58  1  0  0  0  0
 24 27  1  0  0  0  0
 26 28  1  0  0  0  0
 27 30  2  0  0  0  0
 27 31  1  0  0  0  0
 28 29  2  0  0  0  0
 28 59  1  0  0  0  0
 29 60  1  0  0  0  0
 30 32  1  0  0  0  0
 30 61  1  0  0  0  0
 31 33  2  0  0  0  0
 31 62  1  0  0  0  0
 32 34  2  0  0  0  0
 32 35  1  0  0  0  0
 33 34  1  0  0  0  0
 33 63  1  0  0  0  0
 34 64  1  0  0  0  0
M  END
> <PUBCHEM_COMPOUND_CID>
10005638

> <PUBCHEM_COMPOUND_CANONICALIZED>
1

> <PUBCHEM_CACTVS_COMPLEXITY>
697

> <PUBCHEM_CACTVS_HBOND_ACCEPTOR>
9

> <PUBCHEM_CACTVS_HBOND_DONOR>
2

> <PUBCHEM_CACTVS_ROTATABLE_BOND>
5

> <PUBCHEM_CACTVS_SUBSKEYS>
AAADceB7oYAAAAAAAAAAAAAAAAAAAeIAAAA8WIAAAAAAAAAB8AAAHwAQCAAADGzBnxQ/sJfMEgCgAzZnZASCgC0xEqAJ2KA4fJiKbOLA2VGUZAhqkALY2CcQgEAOAAACAAAAAAAAAAQAAAAAAAAAAAAAAA==

> <PUBCHEM_IUPAC_OPENEYE_NAME>
4-[1-[2-(cyclopentylamino)pyrimidin-4-yl]-2-[3-(trifluoromethyl)phenyl]imidazol-4-yl]-1-methyl-piperidin-4-ol

> <PUBCHEM_IUPAC_CAS_NAME>
4-[1-[2-(cyclopentylamino)-4-pyrimidinyl]-2-[3-(trifluoromethyl)phenyl]-4-imidazolyl]-1-methyl-4-piperidinol

> <PUBCHEM_IUPAC_NAME_MARKUP>
4-[1-[2-(cyclopentylamino)pyrimidin-4-yl]-2-[3-(trifluoromethyl)phenyl]imidazol-4-yl]-1-methylpiperidin-4-ol

> <PUBCHEM_IUPAC_NAME>
4-[1-[2-(cyclopentylamino)pyrimidin-4-yl]-2-[3-(trifluoromethyl)phenyl]imidazol-4-yl]-1-methylpiperidin-4-ol

> <PUBCHEM_IUPAC_SYSTEMATIC_NAME>
4-[1-[2-(cyclopentylamino)pyrimidin-4-yl]-2-[3-(trifluoromethyl)phenyl]imidazol-4-yl]-1-methyl-piperidin-4-ol

> <PUBCHEM_IUPAC_TRADITIONAL_NAME>
4-[1-[2-(cyclopentylamino)pyrimidin-4-yl]-2-[3-(trifluoromethyl)phenyl]imidazol-4-yl]-1-methyl-piperidin-4-ol

> <PUBCHEM_IUPAC_INCHI>
InChI=1S/C25H29F3N6O/c1-33-13-10-24(35,11-14-33)20-16-34(21-9-12-29-23(32-21)30-19-7-2-3-8-19)22(31-20)17-5-4-6-18(15-17)25(26,27)28/h4-6,9,12,15-16,19,35H,2-3,7-8,10-11,13-14H2,1H3,(H,29,30,32)

> <PUBCHEM_IUPAC_INCHIKEY>
NTPLIHVIDFWRGV-UHFFFAOYSA-N

> <PUBCHEM_XLOGP3_AA>
4

> <PUBCHEM_EXACT_MASS>
486.23549406

> <PUBCHEM_MOLECULAR_FORMULA>
C25H29F3N6O

> <PUBCHEM_MOLECULAR_WEIGHT>
486.5

> <PUBCHEM_SMILES>
CN1CCC(CC1)(C2=CN(C(=N2)C3=CC(=CC=C3)C(F)(F)F)C4=NC(=NC=C4)NC5CCCC5)O

> <PUBCHEM_OPENEYE_CAN_SMILES>
CN1CCC(CC1)(C2=CN(C(=N2)C3=CC(=CC=C3)C(F)(F)F)C4=NC(=NC=C4)NC5CCCC5)O

> <PUBCHEM_OPENEYE_ISO_SMILES>
CN1CCC(CC1)(C2=CN(C(=N2)C3=CC(=CC=C3)C(F)(F)F)C4=NC(=NC=C4)NC5CCCC5)O

> <PUBCHEM_CACTVS_TPSA>
79.1

> <PUBCHEM_MONOISOTOPIC_WEIGHT>
486.23549406

> <PUBCHEM_TOTAL_CHARGE>
0

> <PUBCHEM_HEAVY_ATOM_COUNT>
35

> <PUBCHEM_ATOM_DEF_STEREO_COUNT>
0

> <PUBCHEM_ATOM_UDEF_STEREO_COUNT>
0

> <PUBCHEM_BOND_DEF_STEREO_COUNT>
0

> <PUBCHEM_BOND_UDEF_STEREO_COUNT>
0

> <PUBCHEM_ISOTOPIC_ATOM_COUNT>
0

> <PUBCHEM_COMPONENT_COUNT>
1

> <PUBCHEM_CACTVS_TAUTO_COUNT>
-1

> <PUBCHEM_COORDINATE_TYPE>
1
5
255

> <PUBCHEM_BONDANNOTATIONS>
10  25  8
10  29  8
21  22  8
26  28  8
27  30  8
27  31  8
28  29  8
30  32  8
31  33  8
32  34  8
33  34  8
7  22  8
7  24  8
8  21  8
8  24  8
9  25  8
9  26  8

$$$$
