49830300
  -OEChem-03202500532D

 49 52  0     1  0  0  0  0  0999 V2000
    7.2566    0.0861    0.0000 Cl  0  0  0  0  0  0  0  0  0  0  0  0
    6.5422    3.4757    0.0000 N   0  0  0  0  0  0  0  0  0  0  0  0
    3.9639    1.1622    0.0000 N   0  0  0  0  0  0  0  0  0  0  0  0
    4.3211   -0.5326    0.0000 N   0  0  0  0  0  0  0  0  0  0  0  0
    5.6103    0.6241    0.0000 N   0  0  0  0  0  0  0  0  0  0  0  0
    4.6783   -3.8369    0.0000 N   0  0  0  0  0  0  0  0  0  0  0  0
    2.8660   -4.0322    0.0000 N   0  0  0  0  0  0  0  0  0  0  0  0
    5.5637    3.2695    0.0000 C   0  0  3  0  0  0  0  0  0  0  0  0
    4.2746    2.1127    0.0000 C   0  0  3  0  0  0  0  0  0  0  0  0
    5.2531    2.3190    0.0000 C   0  0  0  0  0  0  0  0  0  0  0  0
    4.8959    4.0138    0.0000 C   0  0  0  0  0  0  0  0  0  0  0  0
    3.6067    2.8570    0.0000 C   0  0  0  0  0  0  0  0  0  0  0  0
    3.9174    3.8076    0.0000 C   0  0  0  0  0  0  0  0  0  0  0  0
    6.8529    4.4262    0.0000 C   0  0  0  0  0  0  0  0  0  0  0  0
    7.2101    2.7314    0.0000 C   0  0  0  0  0  0  0  0  0  0  0  0
    4.6318    0.4179    0.0000 C   0  0  0  0  0  0  0  0  0  0  0  0
    4.9889   -1.2769    0.0000 C   0  0  0  0  0  0  0  0  0  0  0  0
    4.6783   -2.2274    0.0000 C   0  0  0  0  0  0  0  0  0  0  0  0
    6.2781   -0.1202    0.0000 C   0  0  0  0  0  0  0  0  0  0  0  0
    5.9674   -1.0707    0.0000 C   0  0  0  0  0  0  0  0  0  0  0  0
    3.7320   -2.5322    0.0000 C   0  0  0  0  0  0  0  0  0  0  0  0
    5.2619   -3.0322    0.0000 C   0  0  0  0  0  0  0  0  0  0  0  0
    3.7320   -3.5322    0.0000 C   0  0  0  0  0  0  0  0  0  0  0  0
    2.8660   -2.0322    0.0000 C   0  0  0  0  0  0  0  0  0  0  0  0
    2.0000   -2.5322    0.0000 C   0  0  0  0  0  0  0  0  0  0  0  0
    2.0000   -3.5322    0.0000 C   0  0  0  0  0  0  0  0  0  0  0  0
    5.9778    2.8080    0.0000 H   0  0  0  0  0  0  0  0  0  0  0  0
    4.6886    1.6513    0.0000 H   0  0  0  0  0  0  0  0  0  0  0  0
    5.2736    1.6993    0.0000 H   0  0  0  0  0  0  0  0  0  0  0  0
    5.8669    2.2316    0.0000 H   0  0  0  0  0  0  0  0  0  0  0  0
    5.4222    4.3414    0.0000 H   0  0  0  0  0  0  0  0  0  0  0  0
    4.6646    4.5890    0.0000 H   0  0  0  0  0  0  0  0  0  0  0  0
    3.0598    3.1491    0.0000 H   0  0  0  0  0  0  0  0  0  0  0  0
    3.2242    2.3691    0.0000 H   0  0  0  0  0  0  0  0  0  0  0  0
    3.8968    4.4272    0.0000 H   0  0  0  0  0  0  0  0  0  0  0  0
    3.3036    3.8949    0.0000 H   0  0  0  0  0  0  0  0  0  0  0  0
    3.3572    1.0344    0.0000 H   0  0  0  0  0  0  0  0  0  0  0  0
    7.4422    4.2336    0.0000 H   0  0  0  0  0  0  0  0  0  0  0  0
    7.0455    5.0155    0.0000 H   0  0  0  0  0  0  0  0  0  0  0  0
    6.2636    4.6188    0.0000 H   0  0  0  0  0  0  0  0  0  0  0  0
    6.7486    2.3173    0.0000 H   0  0  0  0  0  0  0  0  0  0  0  0
    7.6242    2.2699    0.0000 H   0  0  0  0  0  0  0  0  0  0  0  0
    7.6716    3.1455    0.0000 H   0  0  0  0  0  0  0  0  0  0  0  0
    6.3815   -1.5322    0.0000 H   0  0  0  0  0  0  0  0  0  0  0  0
    5.8819   -3.0322    0.0000 H   0  0  0  0  0  0  0  0  0  0  0  0
    4.8709   -4.4262    0.0000 H   0  0  0  0  0  0  0  0  0  0  0  0
    2.8660   -1.4122    0.0000 H   0  0  0  0  0  0  0  0  0  0  0  0
    1.4631   -2.2222    0.0000 H   0  0  0  0  0  0  0  0  0  0  0  0
    1.4631   -3.8422    0.0000 H   0  0  0  0  0  0  0  0  0  0  0  0
  1 19  1  0  0  0  0
  2  8  1  0  0  0  0
  2 14  1  0  0  0  0
  2 15  1  0  0  0  0
  3  9  1  0  0  0  0
  3 16  1  0  0  0  0
  3 37  1  0  0  0  0
  4 16  2  0  0  0  0
  4 17  1  0  0  0  0
  5 16  1  0  0  0  0
  5 19  2  0  0  0  0
  6 22  1  0  0  0  0
  6 23  1  0  0  0  0
  6 46  1  0  0  0  0
  7 23  1  0  0  0  0
  7 26  2  0  0  0  0
  8 10  1  0  0  0  0
  8 11  1  0  0  0  0
  8 27  1  0  0  0  0
  9 10  1  0  0  0  0
  9 12  1  0  0  0  0
  9 28  1  0  0  0  0
 10 29  1  0  0  0  0
 10 30  1  0  0  0  0
 11 13  1  0  0  0  0
 11 31  1  0  0  0  0
 11 32  1  0  0  0  0
 12 13  1  0  0  0  0
 12 33  1  0  0  0  0
 12 34  1  0  0  0  0
 13 35  1  0  0  0  0
 13 36  1  0  0  0  0
 14 38  1  0  0  0  0
 14 39  1  0  0  0  0
 14 40  1  0  0  0  0
 15 41  1  0  0  0  0
 15 42  1  0  0  0  0
 15 43  1  0  0  0  0
 17 18  1  0  0  0  0
 17 20  2  0  0  0  0
 18 21  1  0  0  0  0
 18 22  2  0  0  0  0
 19 20  1  0  0  0  0
 20 44  1  0  0  0  0
 21 23  2  0  0  0  0
 21 24  1  0  0  0  0
 22 45  1  0  0  0  0
 24 25  2  0  0  0  0
 24 47  1  0  0  0  0
 25 26  1  0  0  0  0
 25 48  1  0  0  0  0
 26 49  1  0  0  0  0
M  END
> <PUBCHEM_COMPOUND_CID>
49830300

> <PUBCHEM_COMPOUND_CANONICALIZED>
1

> <PUBCHEM_CACTVS_COMPLEXITY>
463

> <PUBCHEM_CACTVS_HBOND_ACCEPTOR>
5

> <PUBCHEM_CACTVS_HBOND_DONOR>
2

> <PUBCHEM_CACTVS_ROTATABLE_BOND>
4

> <PUBCHEM_CACTVS_SUBSKEYS>
AAADceB7gAAEAAAAAAAAAAAAAAAAAWAAAAA8WIAAAAAAAFgB/gAAHAIQAAAADCrBHyQ/sN/JkACgAzZnZACCgCmxB6AJ2aA4ZpiIKOLB29GEJAhokALIyCcQgIAOgAAAAAAAAAAAAAAACAAAAAAAAAAAAA==

> <PUBCHEM_IUPAC_OPENEYE_NAME>
N3-[4-chloro-6-(1H-pyrrolo[2,3-b]pyridin-3-yl)pyrimidin-2-yl]-N1,N1-dimethyl-cyclohexane-1,3-diamine

> <PUBCHEM_IUPAC_CAS_NAME>
N3-[4-chloro-6-(1H-pyrrolo[2,3-b]pyridin-3-yl)-2-pyrimidinyl]-N1,N1-dimethylcyclohexane-1,3-diamine

> <PUBCHEM_IUPAC_NAME_MARKUP>
3-<I>N</I>-[4-chloro-6-(1<I>H</I>-pyrrolo[2,3-b]pyridin-3-yl)pyrimidin-2-yl]-1-<I>N</I>,1-<I>N</I>-dimethylcyclohexane-1,3-diamine

> <PUBCHEM_IUPAC_NAME>
3-N-[4-chloro-6-(1H-pyrrolo[2,3-b]pyridin-3-yl)pyrimidin-2-yl]-1-N,1-N-dimethylcyclohexane-1,3-diamine

> <PUBCHEM_IUPAC_SYSTEMATIC_NAME>
N3-[4-chloranyl-6-(1H-pyrrolo[2,3-b]pyridin-3-yl)pyrimidin-2-yl]-N1,N1-dimethyl-cyclohexane-1,3-diamine

> <PUBCHEM_IUPAC_TRADITIONAL_NAME>
[3-[[4-chloro-6-(1H-pyrrolo[2,3-b]pyridin-3-yl)pyrimidin-2-yl]amino]cyclohexyl]-dimethyl-amine

> <PUBCHEM_IUPAC_INCHI>
InChI=1S/C19H23ClN6/c1-26(2)13-6-3-5-12(9-13)23-19-24-16(10-17(20)25-19)15-11-22-18-14(15)7-4-8-21-18/h4,7-8,10-13H,3,5-6,9H2,1-2H3,(H,21,22)(H,23,24,25)

> <PUBCHEM_IUPAC_INCHIKEY>
VVEGARMQKNYDID-UHFFFAOYSA-N

> <PUBCHEM_XLOGP3_AA>
3.9

> <PUBCHEM_EXACT_MASS>
370.1672725

> <PUBCHEM_MOLECULAR_FORMULA>
C19H23ClN6

> <PUBCHEM_MOLECULAR_WEIGHT>
370.9

> <PUBCHEM_SMILES>
CN(C)C1CCCC(C1)NC2=NC(=CC(=N2)Cl)C3=CNC4=C3C=CC=N4

> <PUBCHEM_OPENEYE_CAN_SMILES>
CN(C)C1CCCC(C1)NC2=NC(=CC(=N2)Cl)C3=CNC4=C3C=CC=N4

> <PUBCHEM_OPENEYE_ISO_SMILES>
CN(C)C1CCCC(C1)NC2=NC(=CC(=N2)Cl)C3=CNC4=C3C=CC=N4

> <PUBCHEM_CACTVS_TPSA>
69.7

> <PUBCHEM_MONOISOTOPIC_WEIGHT>
370.1672725

> <PUBCHEM_TOTAL_CHARGE>
0

> <PUBCHEM_HEAVY_ATOM_COUNT>
26

> <PUBCHEM_ATOM_DEF_STEREO_COUNT>
0

> <PUBCHEM_ATOM_UDEF_STEREO_COUNT>
2

> <PUBCHEM_BOND_DEF_STEREO_COUNT>
0

> <PUBCHEM_BOND_UDEF_STEREO_COUNT>
0

> <PUBCHEM_ISOTOPIC_ATOM_COUNT>
0

> <PUBCHEM_COMPONENT_COUNT>
1

> <PUBCHEM_CACTVS_TAUTO_COUNT>
-1

> <PUBCHEM_COORDINATE_TYPE>
1
5
255

> <PUBCHEM_BONDANNOTATIONS>
17  20  8
18  21  8
18  22  8
19  20  8
8  2  3
21  23  8
21  24  8
24  25  8
25  26  8
9  3  3
4  16  8
4  17  8
5  16  8
5  19  8
6  22  8
6  23  8
7  23  8
7  26  8

$$$$
