49830462
  -OEChem-03202502462D

 51 54  0     0  0  0  0  0  0999 V2000
    6.3690   -1.3016    0.0000 O   0  0  0  0  0  0  0  0  0  0  0  0
    3.3079   -3.2068    0.0000 O   0  0  0  0  0  0  0  0  0  0  0  0
    5.1646    1.0888    0.0000 N   0  0  0  0  0  0  0  0  0  0  0  0
    4.6748   -0.9415    0.0000 N   0  0  0  0  0  0  0  0  0  0  0  0
    5.6646    1.9548    0.0000 N   0  0  0  0  0  0  0  0  0  0  0  0
    6.6428    1.7469    0.0000 N   0  0  0  0  0  0  0  0  0  0  0  0
   10.2916   -1.0523    0.0000 N   0  0  0  0  0  0  0  0  0  0  0  0
   10.8752   -0.2476    0.0000 N   0  0  0  0  0  0  0  0  0  0  0  0
    5.8338    0.3456    0.0000 C   0  0  0  0  0  0  0  0  0  0  0  0
    6.7473    0.7524    0.0000 C   0  0  0  0  0  0  0  0  0  0  0  0
    4.1701    0.9843    0.0000 C   0  0  0  0  0  0  0  0  0  0  0  0
    7.6133    0.2524    0.0000 C   0  0  0  0  0  0  0  0  0  0  0  0
    5.6258   -0.6325    0.0000 C   0  0  0  0  0  0  0  0  0  0  0  0
    4.4669   -1.9197    0.0000 C   0  0  0  0  0  0  0  0  0  0  0  0
    8.4793    0.7524    0.0000 C   0  0  0  0  0  0  0  0  0  0  0  0
    9.3454    0.2524    0.0000 C   0  0  0  0  0  0  0  0  0  0  0  0
    3.5823    1.7933    0.0000 C   0  0  0  0  0  0  0  0  0  0  0  0
    9.3454   -0.7476    0.0000 C   0  0  0  0  0  0  0  0  0  0  0  0
    7.6133   -0.7476    0.0000 C   0  0  0  0  0  0  0  0  0  0  0  0
    8.4793   -1.2476    0.0000 C   0  0  0  0  0  0  0  0  0  0  0  0
    3.5158   -2.2287    0.0000 C   0  0  0  0  0  0  0  0  0  0  0  0
    3.9316   -0.2724    0.0000 C   0  0  0  0  0  0  0  0  0  0  0  0
   10.2916    0.5571    0.0000 C   0  0  0  0  0  0  0  0  0  0  0  0
    3.9890    2.7068    0.0000 C   0  0  0  0  0  0  0  0  0  0  0  0
    2.5878    1.6888    0.0000 C   0  0  0  0  0  0  0  0  0  0  0  0
    3.4013    3.5158    0.0000 C   0  0  0  0  0  0  0  0  0  0  0  0
    2.0000    2.4978    0.0000 C   0  0  0  0  0  0  0  0  0  0  0  0
    2.4067    3.4113    0.0000 C   0  0  0  0  0  0  0  0  0  0  0  0
    2.3568   -3.5158    0.0000 C   0  0  0  0  0  0  0  0  0  0  0  0
    3.6128    0.7125    0.0000 H   0  0  0  0  0  0  0  0  0  0  0  0
    4.3410    0.3883    0.0000 H   0  0  0  0  0  0  0  0  0  0  0  0
    4.5531   -2.5336    0.0000 H   0  0  0  0  0  0  0  0  0  0  0  0
    5.0865   -1.9413    0.0000 H   0  0  0  0  0  0  0  0  0  0  0  0
    8.4793    1.3724    0.0000 H   0  0  0  0  0  0  0  0  0  0  0  0
    7.0764   -1.0576    0.0000 H   0  0  0  0  0  0  0  0  0  0  0  0
    8.4793   -1.8676    0.0000 H   0  0  0  0  0  0  0  0  0  0  0  0
    3.4295   -1.6147    0.0000 H   0  0  0  0  0  0  0  0  0  0  0  0
    2.8962   -2.2070    0.0000 H   0  0  0  0  0  0  0  0  0  0  0  0
    4.3465    0.1884    0.0000 H   0  0  0  0  0  0  0  0  0  0  0  0
    3.4709    0.1425    0.0000 H   0  0  0  0  0  0  0  0  0  0  0  0
    3.5168   -0.7331    0.0000 H   0  0  0  0  0  0  0  0  0  0  0  0
   10.4842    1.1464    0.0000 H   0  0  0  0  0  0  0  0  0  0  0  0
    4.6056    2.7716    0.0000 H   0  0  0  0  0  0  0  0  0  0  0  0
    2.3356    1.1224    0.0000 H   0  0  0  0  0  0  0  0  0  0  0  0
   10.4842   -1.6417    0.0000 H   0  0  0  0  0  0  0  0  0  0  0  0
    3.6534    4.0822    0.0000 H   0  0  0  0  0  0  0  0  0  0  0  0
    1.3834    2.4330    0.0000 H   0  0  0  0  0  0  0  0  0  0  0  0
    2.0423    3.9129    0.0000 H   0  0  0  0  0  0  0  0  0  0  0  0
    2.1652   -2.9262    0.0000 H   0  0  0  0  0  0  0  0  0  0  0  0
    1.7672   -3.7074    0.0000 H   0  0  0  0  0  0  0  0  0  0  0  0
    2.5484   -4.1055    0.0000 H   0  0  0  0  0  0  0  0  0  0  0  0
  1 13  2  0  0  0  0
  2 21  1  0  0  0  0
  2 29  1  0  0  0  0
  3  5  1  0  0  0  0
  3  9  1  0  0  0  0
  3 11  1  0  0  0  0
  4 13  1  0  0  0  0
  4 14  1  0  0  0  0
  4 22  1  0  0  0  0
  5  6  2  0  0  0  0
  6 10  1  0  0  0  0
  7  8  1  0  0  0  0
  7 18  1  0  0  0  0
  7 45  1  0  0  0  0
  8 23  2  0  0  0  0
  9 10  2  0  0  0  0
  9 13  1  0  0  0  0
 10 12  1  0  0  0  0
 11 17  1  0  0  0  0
 11 30  1  0  0  0  0
 11 31  1  0  0  0  0
 12 15  2  0  0  0  0
 12 19  1  0  0  0  0
 14 21  1  0  0  0  0
 14 32  1  0  0  0  0
 14 33  1  0  0  0  0
 15 16  1  0  0  0  0
 15 34  1  0  0  0  0
 16 18  2  0  0  0  0
 16 23  1  0  0  0  0
 17 24  2  0  0  0  0
 17 25  1  0  0  0  0
 18 20  1  0  0  0  0
 19 20  2  0  0  0  0
 19 35  1  0  0  0  0
 20 36  1  0  0  0  0
 21 37  1  0  0  0  0
 21 38  1  0  0  0  0
 22 39  1  0  0  0  0
 22 40  1  0  0  0  0
 22 41  1  0  0  0  0
 23 42  1  0  0  0  0
 24 26  1  0  0  0  0
 24 43  1  0  0  0  0
 25 27  2  0  0  0  0
 25 44  1  0  0  0  0
 26 28  2  0  0  0  0
 26 46  1  0  0  0  0
 27 28  1  0  0  0  0
 27 47  1  0  0  0  0
 28 48  1  0  0  0  0
 29 49  1  0  0  0  0
 29 50  1  0  0  0  0
 29 51  1  0  0  0  0
M  END
> <PUBCHEM_COMPOUND_CID>
49830462

> <PUBCHEM_COMPOUND_CANONICALIZED>
1

> <PUBCHEM_CACTVS_COMPLEXITY>
543

> <PUBCHEM_CACTVS_HBOND_ACCEPTOR>
5

> <PUBCHEM_CACTVS_HBOND_DONOR>
1

> <PUBCHEM_CACTVS_ROTATABLE_BOND>
7

> <PUBCHEM_CACTVS_SUBSKEYS>
AAADceB7sAAAAAAAAAAAAAAAAAAAAWLAAAAwYAAAAAAAAFgB/AAAHgAYAAAADAjhngY+wPNrBACqAzV3VACSBAQnkgAY+SG4dNgKYLrA0fGVpYhgngDYyUcYiMCOCAACAAACAAAQAAQAAAQAAAAAAAAAAA==

> <PUBCHEM_IUPAC_OPENEYE_NAME>
3-benzyl-5-(1H-indazol-5-yl)-N-(2-methoxyethyl)-N-methyl-triazole-4-carboxamide

> <PUBCHEM_IUPAC_CAS_NAME>
5-(1H-indazol-5-yl)-N-(2-methoxyethyl)-N-methyl-3-(phenylmethyl)-4-triazolecarboxamide

> <PUBCHEM_IUPAC_NAME_MARKUP>
3-benzyl-5-(1<I>H</I>-indazol-5-yl)-<I>N</I>-(2-methoxyethyl)-<I>N</I>-methyltriazole-4-carboxamide

> <PUBCHEM_IUPAC_NAME>
3-benzyl-5-(1H-indazol-5-yl)-N-(2-methoxyethyl)-N-methyltriazole-4-carboxamide

> <PUBCHEM_IUPAC_SYSTEMATIC_NAME>
5-(1H-indazol-5-yl)-N-(2-methoxyethyl)-N-methyl-3-(phenylmethyl)-1,2,3-triazole-4-carboxamide

> <PUBCHEM_IUPAC_TRADITIONAL_NAME>
3-benzyl-5-(1H-indazol-5-yl)-N-(2-methoxyethyl)-N-methyl-triazole-4-carboxamide

> <PUBCHEM_IUPAC_INCHI>
InChI=1S/C21H22N6O2/c1-26(10-11-29-2)21(28)20-19(16-8-9-18-17(12-16)13-22-23-18)24-25-27(20)14-15-6-4-3-5-7-15/h3-9,12-13H,10-11,14H2,1-2H3,(H,22,23)

> <PUBCHEM_IUPAC_INCHIKEY>
FDBPGAHVEGEARY-UHFFFAOYSA-N

> <PUBCHEM_XLOGP3_AA>
2.2

> <PUBCHEM_EXACT_MASS>
390.18042397

> <PUBCHEM_MOLECULAR_FORMULA>
C21H22N6O2

> <PUBCHEM_MOLECULAR_WEIGHT>
390.4

> <PUBCHEM_SMILES>
CN(CCOC)C(=O)C1=C(N=NN1CC2=CC=CC=C2)C3=CC4=C(C=C3)NN=C4

> <PUBCHEM_OPENEYE_CAN_SMILES>
CN(CCOC)C(=O)C1=C(N=NN1CC2=CC=CC=C2)C3=CC4=C(C=C3)NN=C4

> <PUBCHEM_OPENEYE_ISO_SMILES>
CN(CCOC)C(=O)C1=C(N=NN1CC2=CC=CC=C2)C3=CC4=C(C=C3)NN=C4

> <PUBCHEM_CACTVS_TPSA>
88.9

> <PUBCHEM_MONOISOTOPIC_WEIGHT>
390.18042397

> <PUBCHEM_TOTAL_CHARGE>
0

> <PUBCHEM_HEAVY_ATOM_COUNT>
29

> <PUBCHEM_ATOM_DEF_STEREO_COUNT>
0

> <PUBCHEM_ATOM_UDEF_STEREO_COUNT>
0

> <PUBCHEM_BOND_DEF_STEREO_COUNT>
0

> <PUBCHEM_BOND_UDEF_STEREO_COUNT>
0

> <PUBCHEM_ISOTOPIC_ATOM_COUNT>
0

> <PUBCHEM_COMPONENT_COUNT>
1

> <PUBCHEM_CACTVS_TAUTO_COUNT>
-1

> <PUBCHEM_COORDINATE_TYPE>
1
5
255

> <PUBCHEM_BONDANNOTATIONS>
12  15  8
12  19  8
15  16  8
16  18  8
16  23  8
17  24  8
17  25  8
18  20  8
19  20  8
24  26  8
25  27  8
26  28  8
27  28  8
3  5  8
3  9  8
5  6  8
6  10  8
7  18  8
7  8  8
8  23  8
9  10  8

$$$$
