44328672
  -OEChem-03202505272D

 71 74  0     1  0  0  0  0  0999 V2000
    8.6097    5.2135    0.0000 O   0  0  0  0  0  0  0  0  0  0  0  0
    6.5406    8.0613    0.0000 O   0  0  0  0  0  0  0  0  0  0  0  0
    7.3631   -4.1377    0.0000 O   0  0  0  0  0  0  0  0  0  0  0  0
    6.5406    4.5412    0.0000 N   0  0  0  0  0  0  0  0  0  0  0  0
    7.6210   -0.5414    0.0000 N   0  0  0  0  0  0  0  0  0  0  0  0
    4.6783    5.4965    0.0000 N   0  0  0  0  0  0  0  0  0  0  0  0
    7.8007    6.8013    0.0000 N   0  0  0  0  0  0  0  0  0  0  0  0
    8.6502   -2.9787    0.0000 N   0  0  0  0  0  0  0  0  0  0  0  0
    9.9885   -4.4650    0.0000 N   0  0  0  0  0  0  0  0  0  0  0  0
    7.5699    2.1039    0.0000 C   0  0  0  0  0  0  0  0  0  0  0  0
    6.9008    2.8470    0.0000 C   0  0  0  0  0  0  0  0  0  0  0  0
    7.2609    1.1528    0.0000 C   0  0  0  0  0  0  0  0  0  0  0  0
    7.2098    3.7981    0.0000 C   0  0  0  0  0  0  0  0  0  0  0  0
    7.9300    0.4097    0.0000 C   0  0  0  0  0  0  0  0  0  0  0  0
    6.8497    5.4923    0.0000 C   0  0  0  0  0  0  0  0  0  0  0  0
    6.2619    6.3013    0.0000 C   0  0  0  0  0  0  0  0  0  0  0  0
    5.2619    6.3013    0.0000 C   0  0  0  0  0  0  0  0  0  0  0  0
    8.2901   -1.2846    0.0000 C   0  0  0  0  0  0  0  0  0  0  0  0
    7.9811   -2.2356    0.0000 C   0  0  0  0  0  0  0  0  0  0  0  0
    3.7320    5.8013    0.0000 C   0  0  0  0  0  0  0  0  0  0  0  0
    3.7320    6.8013    0.0000 C   0  0  0  0  0  0  0  0  0  0  0  0
    4.6783    7.1060    0.0000 C   0  0  0  0  0  0  0  0  0  0  0  0
    7.8007    5.8013    0.0000 C   0  0  0  0  0  0  0  0  0  0  0  0
    6.8497    7.1103    0.0000 C   0  0  0  0  0  0  0  0  0  0  0  0
    9.0104   -4.6730    0.0000 C   0  0  3  0  0  0  0  0  0  0  0  0
    8.7013   -5.6240    0.0000 C   0  0  0  0  0  0  0  0  0  0  0  0
    8.3412   -3.9298    0.0000 C   0  0  0  0  0  0  0  0  0  0  0  0
    2.8660    5.3013    0.0000 C   0  0  0  0  0  0  0  0  0  0  0  0
    2.8660    7.3013    0.0000 C   0  0  0  0  0  0  0  0  0  0  0  0
    9.3705   -6.3672    0.0000 C   0  0  0  0  0  0  0  0  0  0  0  0
    2.0000    5.8013    0.0000 C   0  0  0  0  0  0  0  0  0  0  0  0
    2.0000    6.8013    0.0000 C   0  0  0  0  0  0  0  0  0  0  0  0
   10.3486   -6.1592    0.0000 C   0  0  0  0  0  0  0  0  0  0  0  0
    9.0614   -7.3182    0.0000 C   0  0  0  0  0  0  0  0  0  0  0  0
   11.0177   -6.9024    0.0000 C   0  0  0  0  0  0  0  0  0  0  0  0
    9.7306   -8.0613    0.0000 C   0  0  0  0  0  0  0  0  0  0  0  0
   10.7087   -7.8534    0.0000 C   0  0  0  0  0  0  0  0  0  0  0  0
    8.1173    1.8128    0.0000 H   0  0  0  0  0  0  0  0  0  0  0  0
    7.9516    2.5924    0.0000 H   0  0  0  0  0  0  0  0  0  0  0  0
    6.3533    3.1381    0.0000 H   0  0  0  0  0  0  0  0  0  0  0  0
    6.5190    2.3584    0.0000 H   0  0  0  0  0  0  0  0  0  0  0  0
    6.7134    1.4439    0.0000 H   0  0  0  0  0  0  0  0  0  0  0  0
    6.8792    0.6642    0.0000 H   0  0  0  0  0  0  0  0  0  0  0  0
    7.7572    3.5070    0.0000 H   0  0  0  0  0  0  0  0  0  0  0  0
    7.5915    4.2866    0.0000 H   0  0  0  0  0  0  0  0  0  0  0  0
    8.4774    0.1186    0.0000 H   0  0  0  0  0  0  0  0  0  0  0  0
    8.3117    0.8982    0.0000 H   0  0  0  0  0  0  0  0  0  0  0  0
    5.9342    4.4123    0.0000 H   0  0  0  0  0  0  0  0  0  0  0  0
    7.0145   -0.6703    0.0000 H   0  0  0  0  0  0  0  0  0  0  0  0
    8.8376   -1.5756    0.0000 H   0  0  0  0  0  0  0  0  0  0  0  0
    8.6718   -0.7960    0.0000 H   0  0  0  0  0  0  0  0  0  0  0  0
    7.4337   -1.9445    0.0000 H   0  0  0  0  0  0  0  0  0  0  0  0
    7.5994   -2.7242    0.0000 H   0  0  0  0  0  0  0  0  0  0  0  0
    4.8709    4.9072    0.0000 H   0  0  0  0  0  0  0  0  0  0  0  0
    4.8709    7.6953    0.0000 H   0  0  0  0  0  0  0  0  0  0  0  0
    9.2019   -4.0833    0.0000 H   0  0  0  0  0  0  0  0  0  0  0  0
    8.3023    7.1657    0.0000 H   0  0  0  0  0  0  0  0  0  0  0  0
    8.1539   -5.3329    0.0000 H   0  0  0  0  0  0  0  0  0  0  0  0
    8.3196   -6.1126    0.0000 H   0  0  0  0  0  0  0  0  0  0  0  0
    9.2567   -2.8498    0.0000 H   0  0  0  0  0  0  0  0  0  0  0  0
    2.8660    4.6813    0.0000 H   0  0  0  0  0  0  0  0  0  0  0  0
    2.8660    7.9213    0.0000 H   0  0  0  0  0  0  0  0  0  0  0  0
    1.4631    5.4913    0.0000 H   0  0  0  0  0  0  0  0  0  0  0  0
    1.4631    7.1113    0.0000 H   0  0  0  0  0  0  0  0  0  0  0  0
   10.1801   -3.8754    0.0000 H   0  0  0  0  0  0  0  0  0  0  0  0
   10.4034   -4.9258    0.0000 H   0  0  0  0  0  0  0  0  0  0  0  0
   10.5402   -5.5696    0.0000 H   0  0  0  0  0  0  0  0  0  0  0  0
    8.4550   -7.4471    0.0000 H   0  0  0  0  0  0  0  0  0  0  0  0
   11.6242   -6.7735    0.0000 H   0  0  0  0  0  0  0  0  0  0  0  0
    9.5390   -8.6510    0.0000 H   0  0  0  0  0  0  0  0  0  0  0  0
   11.1236   -8.3142    0.0000 H   0  0  0  0  0  0  0  0  0  0  0  0
  1 23  2  0  0  0  0
  2 24  2  0  0  0  0
  3 27  2  0  0  0  0
  4 13  1  0  0  0  0
  4 15  1  0  0  0  0
  4 48  1  0  0  0  0
  5 14  1  0  0  0  0
  5 18  1  0  0  0  0
  5 49  1  0  0  0  0
  6 17  1  0  0  0  0
  6 20  1  0  0  0  0
  6 54  1  0  0  0  0
  7 23  1  0  0  0  0
  7 24  1  0  0  0  0
  7 57  1  0  0  0  0
  8 19  1  0  0  0  0
  8 27  1  0  0  0  0
  8 60  1  0  0  0  0
  9 25  1  0  0  0  0
  9 65  1  0  0  0  0
  9 66  1  0  0  0  0
 10 11  1  0  0  0  0
 10 12  1  0  0  0  0
 10 38  1  0  0  0  0
 10 39  1  0  0  0  0
 11 13  1  0  0  0  0
 11 40  1  0  0  0  0
 11 41  1  0  0  0  0
 12 14  1  0  0  0  0
 12 42  1  0  0  0  0
 12 43  1  0  0  0  0
 13 44  1  0  0  0  0
 13 45  1  0  0  0  0
 14 46  1  0  0  0  0
 14 47  1  0  0  0  0
 15 16  2  0  0  0  0
 15 23  1  0  0  0  0
 16 17  1  0  0  0  0
 16 24  1  0  0  0  0
 17 22  2  0  0  0  0
 18 19  1  0  0  0  0
 18 50  1  0  0  0  0
 18 51  1  0  0  0  0
 19 52  1  0  0  0  0
 19 53  1  0  0  0  0
 20 21  1  0  0  0  0
 20 28  2  0  0  0  0
 21 22  1  0  0  0  0
 21 29  2  0  0  0  0
 22 55  1  0  0  0  0
 25 26  1  0  0  0  0
 25 27  1  0  0  0  0
 25 56  1  0  0  0  0
 26 30  1  0  0  0  0
 26 58  1  0  0  0  0
 26 59  1  0  0  0  0
 28 31  1  0  0  0  0
 28 61  1  0  0  0  0
 29 32  1  0  0  0  0
 29 62  1  0  0  0  0
 30 33  2  0  0  0  0
 30 34  1  0  0  0  0
 31 32  2  0  0  0  0
 31 63  1  0  0  0  0
 32 64  1  0  0  0  0
 33 35  1  0  0  0  0
 33 67  1  0  0  0  0
 34 36  2  0  0  0  0
 34 68  1  0  0  0  0
 35 37  2  0  0  0  0
 35 69  1  0  0  0  0
 36 37  1  0  0  0  0
 36 70  1  0  0  0  0
 37 71  1  0  0  0  0
M  END
> <PUBCHEM_COMPOUND_CID>
44328672

> <PUBCHEM_COMPOUND_CANONICALIZED>
1

> <PUBCHEM_CACTVS_COMPLEXITY>
825

> <PUBCHEM_CACTVS_HBOND_ACCEPTOR>
6

> <PUBCHEM_CACTVS_HBOND_DONOR>
6

> <PUBCHEM_CACTVS_ROTATABLE_BOND>
14

> <PUBCHEM_CACTVS_SUBSKEYS>
AAADcfB7sAAAAAAAAAAAAAAAAAAAAWIAAAAwYAAAAAAAAFgB9AAAHgAQAAAADCjBngQwwPLJkACoAyVyVACCgCAhAiAImaG4ZNgIYPrA1bGUIAhgliDIyUcYiICOAAAAAAACAAAAAAAAAAQAAAAAAAAAAA==

> <PUBCHEM_IUPAC_OPENEYE_NAME>
2-amino-N-[2-[5-[[4-(1H-indol-2-yl)-2,5-dioxo-pyrrol-3-yl]amino]pentylamino]ethyl]-3-phenyl-propanamide

> <PUBCHEM_IUPAC_CAS_NAME>
2-amino-N-[2-[5-[[4-(1H-indol-2-yl)-2,5-dioxo-3-pyrrolyl]amino]pentylamino]ethyl]-3-phenylpropanamide

> <PUBCHEM_IUPAC_NAME_MARKUP>
2-amino-<I>N</I>-[2-[5-[[4-(1<I>H</I>-indol-2-yl)-2,5-dioxopyrrol-3-yl]amino]pentylamino]ethyl]-3-phenylpropanamide

> <PUBCHEM_IUPAC_NAME>
2-amino-N-[2-[5-[[4-(1H-indol-2-yl)-2,5-dioxopyrrol-3-yl]amino]pentylamino]ethyl]-3-phenylpropanamide

> <PUBCHEM_IUPAC_SYSTEMATIC_NAME>
2-azanyl-N-[2-[5-[[4-(1H-indol-2-yl)-2,5-bis(oxidanylidene)pyrrol-3-yl]amino]pentylamino]ethyl]-3-phenyl-propanamide

> <PUBCHEM_IUPAC_TRADITIONAL_NAME>
2-amino-N-[2-[5-[[4-(1H-indol-2-yl)-2,5-diketo-3-pyrrolin-3-yl]amino]pentylamino]ethyl]-3-phenyl-propionamide

> <PUBCHEM_IUPAC_INCHI>
InChI=1S/C28H34N6O3/c29-21(17-19-9-3-1-4-10-19)26(35)32-16-15-30-13-7-2-8-14-31-25-24(27(36)34-28(25)37)23-18-20-11-5-6-12-22(20)33-23/h1,3-6,9-12,18,21,30,33H,2,7-8,13-17,29H2,(H,32,35)(H2,31,34,36,37)

> <PUBCHEM_IUPAC_INCHIKEY>
VJOSKSBNTNQAKK-UHFFFAOYSA-N

> <PUBCHEM_XLOGP3_AA>
2.3

> <PUBCHEM_EXACT_MASS>
502.26923897

> <PUBCHEM_MOLECULAR_FORMULA>
C28H34N6O3

> <PUBCHEM_MOLECULAR_WEIGHT>
502.6

> <PUBCHEM_SMILES>
C1=CC=C(C=C1)CC(C(=O)NCCNCCCCCNC2=C(C(=O)NC2=O)C3=CC4=CC=CC=C4N3)N

> <PUBCHEM_OPENEYE_CAN_SMILES>
C1=CC=C(C=C1)CC(C(=O)NCCNCCCCCNC2=C(C(=O)NC2=O)C3=CC4=CC=CC=C4N3)N

> <PUBCHEM_OPENEYE_ISO_SMILES>
C1=CC=C(C=C1)CC(C(=O)NCCNCCCCCNC2=C(C(=O)NC2=O)C3=CC4=CC=CC=C4N3)N

> <PUBCHEM_CACTVS_TPSA>
141

> <PUBCHEM_MONOISOTOPIC_WEIGHT>
502.26923897

> <PUBCHEM_TOTAL_CHARGE>
0

> <PUBCHEM_HEAVY_ATOM_COUNT>
37

> <PUBCHEM_ATOM_DEF_STEREO_COUNT>
0

> <PUBCHEM_ATOM_UDEF_STEREO_COUNT>
1

> <PUBCHEM_BOND_DEF_STEREO_COUNT>
0

> <PUBCHEM_BOND_UDEF_STEREO_COUNT>
0

> <PUBCHEM_ISOTOPIC_ATOM_COUNT>
0

> <PUBCHEM_COMPONENT_COUNT>
1

> <PUBCHEM_CACTVS_TAUTO_COUNT>
-1

> <PUBCHEM_COORDINATE_TYPE>
1
5
255

> <PUBCHEM_BONDANNOTATIONS>
17  22  8
20  21  8
20  28  8
21  22  8
21  29  8
28  31  8
29  32  8
30  33  8
30  34  8
31  32  8
33  35  8
34  36  8
35  37  8
36  37  8
6  17  8
6  20  8
25  9  3

$$$$
