49830610
  -OEChem-03202503242D

 54 57  0     0  0  0  0  0  0999 V2000
    6.2619   -3.2618    0.0000 F   0  0  0  0  0  0  0  0  0  0  0  0
    9.2619   -1.5298    0.0000 F   0  0  0  0  0  0  0  0  0  0  0  0
    9.8349    3.9019    0.0000 O   0  0  0  0  0  0  0  0  0  0  0  0
    2.8660   -3.5298    0.0000 O   0  0  0  0  0  0  0  0  0  0  0  0
    7.2566    1.5884    0.0000 N   0  0  0  0  0  0  0  0  0  0  0  0
    3.7320   -1.0298    0.0000 N   0  0  0  0  0  0  0  0  0  0  0  0
    5.9674    0.4317    0.0000 N   0  0  0  0  0  0  0  0  0  0  0  0
    4.6783   -2.3345    0.0000 N   0  0  0  0  0  0  0  0  0  0  0  0
    5.6103    2.1265    0.0000 N   0  0  0  0  0  0  0  0  0  0  0  0
    2.0000   -2.0298    0.0000 N   0  0  0  0  0  0  0  0  0  0  0  0
    8.5458    2.7452    0.0000 C   0  0  0  0  0  0  0  0  0  0  0  0
    7.5673    2.5390    0.0000 C   0  0  0  0  0  0  0  0  0  0  0  0
    9.5243    2.9514    0.0000 C   0  0  0  0  0  0  0  0  0  0  0  0
    8.3396    3.7237    0.0000 C   0  0  0  0  0  0  0  0  0  0  0  0
    8.7520    1.7667    0.0000 C   0  0  0  0  0  0  0  0  0  0  0  0
    4.6783   -0.7250    0.0000 C   0  0  0  0  0  0  0  0  0  0  0  0
    6.2781    1.3822    0.0000 C   0  0  0  0  0  0  0  0  0  0  0  0
    5.2619   -1.5298    0.0000 C   0  0  0  0  0  0  0  0  0  0  0  0
    4.9889    0.2255    0.0000 C   0  0  0  0  0  0  0  0  0  0  0  0
    3.7320   -2.0298    0.0000 C   0  0  0  0  0  0  0  0  0  0  0  0
    6.2619   -1.5298    0.0000 C   0  0  0  0  0  0  0  0  0  0  0  0
    4.3211    0.9698    0.0000 C   0  0  0  0  0  0  0  0  0  0  0  0
    2.8660   -0.5298    0.0000 C   0  0  0  0  0  0  0  0  0  0  0  0
    2.8660   -2.5298    0.0000 C   0  0  0  0  0  0  0  0  0  0  0  0
    4.6318    1.9203    0.0000 C   0  0  0  0  0  0  0  0  0  0  0  0
    6.7619   -2.3958    0.0000 C   0  0  0  0  0  0  0  0  0  0  0  0
    6.7619   -0.6637    0.0000 C   0  0  0  0  0  0  0  0  0  0  0  0
    2.0000   -1.0298    0.0000 C   0  0  0  0  0  0  0  0  0  0  0  0
    7.7619   -2.3958    0.0000 C   0  0  0  0  0  0  0  0  0  0  0  0
    7.7619   -0.6637    0.0000 C   0  0  0  0  0  0  0  0  0  0  0  0
    8.2619   -1.5298    0.0000 C   0  0  0  0  0  0  0  0  0  0  0  0
    2.0000   -4.0298    0.0000 C   0  0  0  0  0  0  0  0  0  0  0  0
    7.5467    3.1586    0.0000 H   0  0  0  0  0  0  0  0  0  0  0  0
    6.9534    2.6263    0.0000 H   0  0  0  0  0  0  0  0  0  0  0  0
    9.5448    2.3317    0.0000 H   0  0  0  0  0  0  0  0  0  0  0  0
   10.1381    2.8641    0.0000 H   0  0  0  0  0  0  0  0  0  0  0  0
    8.9462    3.8515    0.0000 H   0  0  0  0  0  0  0  0  0  0  0  0
    8.2117    4.3304    0.0000 H   0  0  0  0  0  0  0  0  0  0  0  0
    7.7329    3.5958    0.0000 H   0  0  0  0  0  0  0  0  0  0  0  0
    8.1453    1.6388    0.0000 H   0  0  0  0  0  0  0  0  0  0  0  0
    8.8798    1.1600    0.0000 H   0  0  0  0  0  0  0  0  0  0  0  0
    9.3587    1.8945    0.0000 H   0  0  0  0  0  0  0  0  0  0  0  0
    7.6707    1.1270    0.0000 H   0  0  0  0  0  0  0  0  0  0  0  0
   10.4416    4.0298    0.0000 H   0  0  0  0  0  0  0  0  0  0  0  0
    3.7144    0.8419    0.0000 H   0  0  0  0  0  0  0  0  0  0  0  0
    2.8660    0.0902    0.0000 H   0  0  0  0  0  0  0  0  0  0  0  0
    4.2177    2.3818    0.0000 H   0  0  0  0  0  0  0  0  0  0  0  0
    6.4519   -0.1268    0.0000 H   0  0  0  0  0  0  0  0  0  0  0  0
    1.4631   -0.7198    0.0000 H   0  0  0  0  0  0  0  0  0  0  0  0
    8.0719   -2.9327    0.0000 H   0  0  0  0  0  0  0  0  0  0  0  0
    8.0719   -0.1268    0.0000 H   0  0  0  0  0  0  0  0  0  0  0  0
    1.6900   -3.4928    0.0000 H   0  0  0  0  0  0  0  0  0  0  0  0
    1.4631   -4.3398    0.0000 H   0  0  0  0  0  0  0  0  0  0  0  0
    2.3100   -4.5667    0.0000 H   0  0  0  0  0  0  0  0  0  0  0  0
  1 26  1  0  0  0  0
  2 31  1  0  0  0  0
  3 13  1  0  0  0  0
  3 44  1  0  0  0  0
  4 24  1  0  0  0  0
  4 32  1  0  0  0  0
  5 12  1  0  0  0  0
  5 17  1  0  0  0  0
  5 43  1  0  0  0  0
  6 16  1  0  0  0  0
  6 20  1  0  0  0  0
  6 23  1  0  0  0  0
  7 17  1  0  0  0  0
  7 19  2  0  0  0  0
  8 18  1  0  0  0  0
  8 20  2  0  0  0  0
  9 17  2  0  0  0  0
  9 25  1  0  0  0  0
 10 24  2  0  0  0  0
 10 28  1  0  0  0  0
 11 12  1  0  0  0  0
 11 13  1  0  0  0  0
 11 14  1  0  0  0  0
 11 15  1  0  0  0  0
 12 33  1  0  0  0  0
 12 34  1  0  0  0  0
 13 35  1  0  0  0  0
 13 36  1  0  0  0  0
 14 37  1  0  0  0  0
 14 38  1  0  0  0  0
 14 39  1  0  0  0  0
 15 40  1  0  0  0  0
 15 41  1  0  0  0  0
 15 42  1  0  0  0  0
 16 18  2  0  0  0  0
 16 19  1  0  0  0  0
 18 21  1  0  0  0  0
 19 22  1  0  0  0  0
 20 24  1  0  0  0  0
 21 26  2  0  0  0  0
 21 27  1  0  0  0  0
 22 25  2  0  0  0  0
 22 45  1  0  0  0  0
 23 28  2  0  0  0  0
 23 46  1  0  0  0  0
 25 47  1  0  0  0  0
 26 29  1  0  0  0  0
 27 30  2  0  0  0  0
 27 48  1  0  0  0  0
 28 49  1  0  0  0  0
 29 31  2  0  0  0  0
 29 50  1  0  0  0  0
 30 31  1  0  0  0  0
 30 51  1  0  0  0  0
 32 52  1  0  0  0  0
 32 53  1  0  0  0  0
 32 54  1  0  0  0  0
M  END
> <PUBCHEM_COMPOUND_CID>
49830610

> <PUBCHEM_COMPOUND_CANONICALIZED>
1

> <PUBCHEM_CACTVS_COMPLEXITY>
617

> <PUBCHEM_CACTVS_HBOND_ACCEPTOR>
9

> <PUBCHEM_CACTVS_HBOND_DONOR>
2

> <PUBCHEM_CACTVS_ROTATABLE_BOND>
7

> <PUBCHEM_CACTVS_SUBSKEYS>
AAADceB7sYAAAAAAAAAAAAAAAAAAAWAAAAA8WIAAAAAAAFgB/AAAHwAQCAAADgjhnw4/tJ/MHgCgAzZnZASCiC0xUqAJ2KA5dJiOeOLA2dGVZAhqgALYyCcQgMAOAAAAAAAAAAAAAAAAAAAAAAAAAAAAAA==

> <PUBCHEM_IUPAC_OPENEYE_NAME>
3-[[4-[2-(2,4-difluorophenyl)-8-methoxy-imidazo[1,2-a]pyrazin-3-yl]pyrimidin-2-yl]amino]-2,2-dimethyl-propan-1-ol

> <PUBCHEM_IUPAC_CAS_NAME>
3-[[4-[2-(2,4-difluorophenyl)-8-methoxy-3-imidazo[1,2-a]pyrazinyl]-2-pyrimidinyl]amino]-2,2-dimethyl-1-propanol

> <PUBCHEM_IUPAC_NAME_MARKUP>
3-[[4-[2-(2,4-difluorophenyl)-8-methoxyimidazo[1,2-a]pyrazin-3-yl]pyrimidin-2-yl]amino]-2,2-dimethylpropan-1-ol

> <PUBCHEM_IUPAC_NAME>
3-[[4-[2-(2,4-difluorophenyl)-8-methoxyimidazo[1,2-a]pyrazin-3-yl]pyrimidin-2-yl]amino]-2,2-dimethylpropan-1-ol

> <PUBCHEM_IUPAC_SYSTEMATIC_NAME>
3-[[4-[2-[2,4-bis(fluoranyl)phenyl]-8-methoxy-imidazo[1,2-a]pyrazin-3-yl]pyrimidin-2-yl]amino]-2,2-dimethyl-propan-1-ol

> <PUBCHEM_IUPAC_TRADITIONAL_NAME>
3-[[4-[2-(2,4-difluorophenyl)-8-methoxy-imidazo[1,2-a]pyrazin-3-yl]pyrimidin-2-yl]amino]-2,2-dimethyl-propan-1-ol

> <PUBCHEM_IUPAC_INCHI>
InChI=1S/C22H22F2N6O2/c1-22(2,12-31)11-27-21-26-7-6-16(28-21)18-17(14-5-4-13(23)10-15(14)24)29-19-20(32-3)25-8-9-30(18)19/h4-10,31H,11-12H2,1-3H3,(H,26,27,28)

> <PUBCHEM_IUPAC_INCHIKEY>
UCOWZARZLHNDKP-UHFFFAOYSA-N

> <PUBCHEM_XLOGP3_AA>
4.2

> <PUBCHEM_EXACT_MASS>
440.17723029

> <PUBCHEM_MOLECULAR_FORMULA>
C22H22F2N6O2

> <PUBCHEM_MOLECULAR_WEIGHT>
440.4

> <PUBCHEM_SMILES>
CC(C)(CNC1=NC=CC(=N1)C2=C(N=C3N2C=CN=C3OC)C4=C(C=C(C=C4)F)F)CO

> <PUBCHEM_OPENEYE_CAN_SMILES>
CC(C)(CNC1=NC=CC(=N1)C2=C(N=C3N2C=CN=C3OC)C4=C(C=C(C=C4)F)F)CO

> <PUBCHEM_OPENEYE_ISO_SMILES>
CC(C)(CNC1=NC=CC(=N1)C2=C(N=C3N2C=CN=C3OC)C4=C(C=C(C=C4)F)F)CO

> <PUBCHEM_CACTVS_TPSA>
97.5

> <PUBCHEM_MONOISOTOPIC_WEIGHT>
440.17723029

> <PUBCHEM_TOTAL_CHARGE>
0

> <PUBCHEM_HEAVY_ATOM_COUNT>
32

> <PUBCHEM_ATOM_DEF_STEREO_COUNT>
0

> <PUBCHEM_ATOM_UDEF_STEREO_COUNT>
0

> <PUBCHEM_BOND_DEF_STEREO_COUNT>
0

> <PUBCHEM_BOND_UDEF_STEREO_COUNT>
0

> <PUBCHEM_ISOTOPIC_ATOM_COUNT>
0

> <PUBCHEM_COMPONENT_COUNT>
1

> <PUBCHEM_CACTVS_TAUTO_COUNT>
-1

> <PUBCHEM_COORDINATE_TYPE>
1
5
255

> <PUBCHEM_BONDANNOTATIONS>
10  24  8
10  28  8
16  18  8
19  22  8
20  24  8
21  26  8
21  27  8
22  25  8
23  28  8
26  29  8
27  30  8
29  31  8
30  31  8
6  16  8
6  20  8
6  23  8
7  17  8
7  19  8
8  18  8
8  20  8
9  17  8
9  25  8

$$$$
