44410717
  -OEChem-03202504352D

 54 57  0     1  0  0  0  0  0999 V2000
   12.0793   -1.0474    0.0000 Cl  0  0  0  0  0  0  0  0  0  0  0  0
   10.3590   -0.0274    0.0000 F   0  0  0  0  0  0  0  0  0  0  0  0
    4.2690   -1.4728    0.0000 O   0  0  0  0  0  0  0  0  0  0  0  0
    5.1350    2.0272    0.0000 O   0  0  0  0  0  0  0  0  0  0  0  0
    4.2690    0.5272    0.0000 N   0  0  3  0  0  0  0  0  0  0  0  0
    2.5369   -1.4728    0.0000 N   0  0  0  0  0  0  0  0  0  0  0  0
    8.6270    2.0619    0.0000 N   0  0  0  0  0  0  0  0  0  0  0  0
    8.6155   -1.0074    0.0000 N   0  0  0  0  0  0  0  0  0  0  0  0
    9.5331    0.5064    0.0000 N   0  0  0  0  0  0  0  0  0  0  0  0
    3.4030    0.0272    0.0000 C   0  0  2  0  0  0  0  0  0  0  0  0
    2.5369    0.5272    0.0000 C   0  0  0  0  0  0  0  0  0  0  0  0
    4.2690    1.5272    0.0000 C   0  0  0  0  0  0  0  0  0  0  0  0
    2.5369    1.5272    0.0000 C   0  0  0  0  0  0  0  0  0  0  0  0
    3.4030    2.0272    0.0000 C   0  0  0  0  0  0  0  0  0  0  0  0
    5.1350    0.0272    0.0000 C   0  0  0  0  0  0  0  0  0  0  0  0
    3.4030   -0.9728    0.0000 C   0  0  0  0  0  0  0  0  0  0  0  0
    6.0010    0.5272    0.0000 C   0  0  0  0  0  0  0  0  0  0  0  0
    6.0010    1.5272    0.0000 C   0  0  0  0  0  0  0  0  0  0  0  0
    6.8671    0.0272    0.0000 C   0  0  0  0  0  0  0  0  0  0  0  0
    7.7331    0.5272    0.0000 C   0  0  0  0  0  0  0  0  0  0  0  0
    6.8671    2.0272    0.0000 C   0  0  0  0  0  0  0  0  0  0  0  0
    7.7331    1.5272    0.0000 C   0  0  0  0  0  0  0  0  0  0  0  0
    8.6270   -0.0074    0.0000 C   0  0  0  0  0  0  0  0  0  0  0  0
    5.1350    3.0272    0.0000 C   0  0  0  0  0  0  0  0  0  0  0  0
    9.5331    1.5481    0.0000 C   0  0  0  0  0  0  0  0  0  0  0  0
    9.4756   -1.5173    0.0000 C   0  0  0  0  0  0  0  0  0  0  0  0
   10.3474   -1.0274    0.0000 C   0  0  0  0  0  0  0  0  0  0  0  0
    9.4641   -2.5173    0.0000 C   0  0  0  0  0  0  0  0  0  0  0  0
   11.2076   -1.5374    0.0000 C   0  0  0  0  0  0  0  0  0  0  0  0
   10.3243   -3.0272    0.0000 C   0  0  0  0  0  0  0  0  0  0  0  0
   11.1960   -2.5373    0.0000 C   0  0  0  0  0  0  0  0  0  0  0  0
    3.9399   -0.2828    0.0000 H   0  0  0  0  0  0  0  0  0  0  0  0
    1.9264    0.6349    0.0000 H   0  0  0  0  0  0  0  0  0  0  0  0
    2.3249   -0.0554    0.0000 H   0  0  0  0  0  0  0  0  0  0  0  0
    4.8796    1.4196    0.0000 H   0  0  0  0  0  0  0  0  0  0  0  0
    4.4810    2.1098    0.0000 H   0  0  0  0  0  0  0  0  0  0  0  0
    2.3249    2.1098    0.0000 H   0  0  0  0  0  0  0  0  0  0  0  0
    1.9264    1.4196    0.0000 H   0  0  0  0  0  0  0  0  0  0  0  0
    3.8015    2.5022    0.0000 H   0  0  0  0  0  0  0  0  0  0  0  0
    3.0044    2.5022    0.0000 H   0  0  0  0  0  0  0  0  0  0  0  0
    4.7365   -0.4477    0.0000 H   0  0  0  0  0  0  0  0  0  0  0  0
    5.5335   -0.4477    0.0000 H   0  0  0  0  0  0  0  0  0  0  0  0
    6.8671   -0.5928    0.0000 H   0  0  0  0  0  0  0  0  0  0  0  0
    2.0000   -1.1628    0.0000 H   0  0  0  0  0  0  0  0  0  0  0  0
    2.5369   -2.0928    0.0000 H   0  0  0  0  0  0  0  0  0  0  0  0
    6.8671    2.6472    0.0000 H   0  0  0  0  0  0  0  0  0  0  0  0
    8.0750   -1.3111    0.0000 H   0  0  0  0  0  0  0  0  0  0  0  0
    5.7550    3.0272    0.0000 H   0  0  0  0  0  0  0  0  0  0  0  0
    5.1350    3.6472    0.0000 H   0  0  0  0  0  0  0  0  0  0  0  0
    4.5150    3.0272    0.0000 H   0  0  0  0  0  0  0  0  0  0  0  0
   10.0688    1.8601    0.0000 H   0  0  0  0  0  0  0  0  0  0  0  0
    8.9236   -2.8210    0.0000 H   0  0  0  0  0  0  0  0  0  0  0  0
   10.3171   -3.6472    0.0000 H   0  0  0  0  0  0  0  0  0  0  0  0
   11.7293   -2.8535    0.0000 H   0  0  0  0  0  0  0  0  0  0  0  0
  1 29  1  0  0  0  0
  2 27  1  0  0  0  0
  3 16  2  0  0  0  0
  4 18  1  0  0  0  0
  4 24  1  0  0  0  0
  5 10  1  0  0  0  0
  5 12  1  0  0  0  0
  5 15  1  0  0  0  0
  6 16  1  0  0  0  0
  6 44  1  0  0  0  0
  6 45  1  0  0  0  0
  7 22  1  0  0  0  0
  7 25  2  0  0  0  0
  8 23  1  0  0  0  0
  8 26  1  0  0  0  0
  8 47  1  0  0  0  0
  9 23  2  0  0  0  0
  9 25  1  0  0  0  0
 10 11  1  0  0  0  0
 10 16  1  1  0  0  0
 10 32  1  0  0  0  0
 11 13  1  0  0  0  0
 11 33  1  0  0  0  0
 11 34  1  0  0  0  0
 12 14  1  0  0  0  0
 12 35  1  0  0  0  0
 12 36  1  0  0  0  0
 13 14  1  0  0  0  0
 13 37  1  0  0  0  0
 13 38  1  0  0  0  0
 14 39  1  0  0  0  0
 14 40  1  0  0  0  0
 15 17  1  0  0  0  0
 15 41  1  0  0  0  0
 15 42  1  0  0  0  0
 17 18  1  0  0  0  0
 17 19  2  0  0  0  0
 18 21  2  0  0  0  0
 19 20  1  0  0  0  0
 19 43  1  0  0  0  0
 20 22  2  0  0  0  0
 20 23  1  0  0  0  0
 21 22  1  0  0  0  0
 21 46  1  0  0  0  0
 24 48  1  0  0  0  0
 24 49  1  0  0  0  0
 24 50  1  0  0  0  0
 25 51  1  0  0  0  0
 26 27  2  0  0  0  0
 26 28  1  0  0  0  0
 27 29  1  0  0  0  0
 28 30  2  0  0  0  0
 28 52  1  0  0  0  0
 29 31  2  0  0  0  0
 30 31  1  0  0  0  0
 30 53  1  0  0  0  0
 31 54  1  0  0  0  0
M  END
> <PUBCHEM_COMPOUND_CID>
44410717

> <PUBCHEM_COMPOUND_CANONICALIZED>
1

> <PUBCHEM_CACTVS_COMPLEXITY>
616

> <PUBCHEM_CACTVS_HBOND_ACCEPTOR>
7

> <PUBCHEM_CACTVS_HBOND_DONOR>
2

> <PUBCHEM_CACTVS_ROTATABLE_BOND>
6

> <PUBCHEM_CACTVS_SUBSKEYS>
AAADceB7sQAEAAAAAAAAAAAAAAAAAAAAAAA8eIEAAAAAAACx9AAAHwIQAAAADC7Bni439vfIFACoAydzdACCiCkxJ6AJ2CG+bpiMbvLF+/uUNChu0BvI6CeY2GMOKAACAgIKAABQAAQEBBQAAAAAAAAAAA==

> <PUBCHEM_IUPAC_OPENEYE_NAME>
(2R)-1-[[4-(3-chloro-2-fluoro-anilino)-7-methoxy-quinazolin-6-yl]methyl]piperidine-2-carboxamide

> <PUBCHEM_IUPAC_CAS_NAME>
(2R)-1-[[4-(3-chloro-2-fluoroanilino)-7-methoxy-6-quinazolinyl]methyl]-2-piperidinecarboxamide

> <PUBCHEM_IUPAC_NAME_MARKUP>
(2<I>R</I>)-1-[[4-(3-chloro-2-fluoroanilino)-7-methoxyquinazolin-6-yl]methyl]piperidine-2-carboxamide

> <PUBCHEM_IUPAC_NAME>
(2R)-1-[[4-(3-chloro-2-fluoroanilino)-7-methoxyquinazolin-6-yl]methyl]piperidine-2-carboxamide

> <PUBCHEM_IUPAC_SYSTEMATIC_NAME>
(2R)-1-[[4-[(3-chloranyl-2-fluoranyl-phenyl)amino]-7-methoxy-quinazolin-6-yl]methyl]piperidine-2-carboxamide

> <PUBCHEM_IUPAC_TRADITIONAL_NAME>
(2R)-1-[[4-(3-chloro-2-fluoro-anilino)-7-methoxy-quinazolin-6-yl]methyl]pipecolinamide

> <PUBCHEM_IUPAC_INCHI>
InChI=1S/C22H23ClFN5O2/c1-31-19-10-17-14(9-13(19)11-29-8-3-2-7-18(29)21(25)30)22(27-12-26-17)28-16-6-4-5-15(23)20(16)24/h4-6,9-10,12,18H,2-3,7-8,11H2,1H3,(H2,25,30)(H,26,27,28)/t18-/m1/s1

> <PUBCHEM_IUPAC_INCHIKEY>
LXTAEWNPSMNHDX-GOSISDBHSA-N

> <PUBCHEM_XLOGP3_AA>
3.8

> <PUBCHEM_EXACT_MASS>
443.1524308

> <PUBCHEM_MOLECULAR_FORMULA>
C22H23ClFN5O2

> <PUBCHEM_MOLECULAR_WEIGHT>
443.9

> <PUBCHEM_SMILES>
COC1=CC2=C(C=C1CN3CCCC[C@@H]3C(=O)N)C(=NC=N2)NC4=C(C(=CC=C4)Cl)F

> <PUBCHEM_OPENEYE_CAN_SMILES>
COC1=CC2=C(C=C1CN3CCCCC3C(=O)N)C(=NC=N2)NC4=C(C(=CC=C4)Cl)F

> <PUBCHEM_OPENEYE_ISO_SMILES>
COC1=CC2=C(C=C1CN3CCCC[C@@H]3C(=O)N)C(=NC=N2)NC4=C(C(=CC=C4)Cl)F

> <PUBCHEM_CACTVS_TPSA>
93.4

> <PUBCHEM_MONOISOTOPIC_WEIGHT>
443.1524308

> <PUBCHEM_TOTAL_CHARGE>
0

> <PUBCHEM_HEAVY_ATOM_COUNT>
31

> <PUBCHEM_ATOM_DEF_STEREO_COUNT>
1

> <PUBCHEM_ATOM_UDEF_STEREO_COUNT>
0

> <PUBCHEM_BOND_DEF_STEREO_COUNT>
0

> <PUBCHEM_BOND_UDEF_STEREO_COUNT>
0

> <PUBCHEM_ISOTOPIC_ATOM_COUNT>
0

> <PUBCHEM_COMPONENT_COUNT>
1

> <PUBCHEM_CACTVS_TAUTO_COUNT>
-1

> <PUBCHEM_COORDINATE_TYPE>
1
5
255

> <PUBCHEM_BONDANNOTATIONS>
10  16  5
17  18  8
17  19  8
18  21  8
19  20  8
20  22  8
20  23  8
21  22  8
26  27  8
26  28  8
27  29  8
28  30  8
29  31  8
30  31  8
7  22  8
7  25  8
9  23  8
9  25  8

$$$$
