9932061
  -OEChem-03202505182D

 49 56  0     1  0  0  0  0  0999 V2000
    7.5253    2.3172    0.0000 O   0  0  0  0  0  0  0  0  0  0  0  0
   10.9020   -1.0062    0.0000 O   0  0  0  0  0  0  0  0  0  0  0  0
    3.4737   -2.7437    0.0000 O   0  0  0  0  0  0  0  0  0  0  0  0
    2.2501    0.6180    0.0000 O   0  0  0  0  0  0  0  0  0  0  0  0
    6.9273   -0.6474    0.0000 N   0  0  0  0  0  0  0  0  0  0  0  0
    6.2433    1.2320    0.0000 N   0  0  0  0  0  0  0  0  0  0  0  0
    2.5826   -1.1645    0.0000 N   0  0  0  0  0  0  0  0  0  0  0  0
    8.0031    0.3687    0.0000 C   0  0  1  0  0  0  0  0  0  0  0  0
    9.4020   -0.1401    0.0000 C   0  0  2  0  0  0  0  0  0  0  0  0
    8.2619    1.3346    0.0000 C   0  0  2  0  0  0  0  0  0  0  0  0
    9.6609    0.8258    0.0000 C   0  0  0  0  0  0  0  0  0  0  0  0
    5.9425   -0.4737    0.0000 C   0  0  0  0  0  0  0  0  0  0  0  0
    5.6005    0.4660    0.0000 C   0  0  0  0  0  0  0  0  0  0  0  0
    5.2853   -1.2819    0.0000 C   0  0  0  0  0  0  0  0  0  0  0  0
    4.5776    0.6626    0.0000 C   0  0  0  0  0  0  0  0  0  0  0  0
    6.9003   -1.6408    0.0000 C   0  0  0  0  0  0  0  0  0  0  0  0
    5.5840    1.9757    0.0000 C   0  0  0  0  0  0  0  0  0  0  0  0
    9.9020   -1.0062    0.0000 C   0  0  0  0  0  0  0  0  0  0  0  0
    5.9733   -1.9990    0.0000 C   0  0  0  0  0  0  0  0  0  0  0  0
    4.6436    1.6543    0.0000 C   0  0  0  0  0  0  0  0  0  0  0  0
    4.2582   -1.1089    0.0000 C   0  0  0  0  0  0  0  0  0  0  0  0
    3.9019   -0.1301    0.0000 C   0  0  0  0  0  0  0  0  0  0  0  0
    7.7162   -2.2780    0.0000 C   0  0  0  0  0  0  0  0  0  0  0  0
    5.7995    2.9882    0.0000 C   0  0  0  0  0  0  0  0  0  0  0  0
    3.4406   -1.7443    0.0000 C   0  0  0  0  0  0  0  0  0  0  0  0
    2.8672   -0.1689    0.0000 C   0  0  0  0  0  0  0  0  0  0  0  0
    5.7979   -3.0193    0.0000 C   0  0  0  0  0  0  0  0  0  0  0  0
    3.8535    2.3231    0.0000 C   0  0  0  0  0  0  0  0  0  0  0  0
    7.5644   -3.3020    0.0000 C   0  0  0  0  0  0  0  0  0  0  0  0
    5.0250    3.6751    0.0000 C   0  0  0  0  0  0  0  0  0  0  0  0
    6.5988   -3.6751    0.0000 C   0  0  0  0  0  0  0  0  0  0  0  0
    4.0454    3.3403    0.0000 C   0  0  0  0  0  0  0  0  0  0  0  0
    7.7831   -0.4524    0.0000 H   0  0  0  0  0  0  0  0  0  0  0  0
    9.0036   -0.6151    0.0000 H   0  0  0  0  0  0  0  0  0  0  0  0
    8.4819    2.1556    0.0000 H   0  0  0  0  0  0  0  0  0  0  0  0
   10.2548    0.6480    0.0000 H   0  0  0  0  0  0  0  0  0  0  0  0
    9.8558    1.4143    0.0000 H   0  0  0  0  0  0  0  0  0  0  0  0
    9.3194   -1.2182    0.0000 H   0  0  0  0  0  0  0  0  0  0  0  0
   10.0097   -1.6168    0.0000 H   0  0  0  0  0  0  0  0  0  0  0  0
    8.2919   -2.0478    0.0000 H   0  0  0  0  0  0  0  0  0  0  0  0
    6.3884    3.1820    0.0000 H   0  0  0  0  0  0  0  0  0  0  0  0
    5.2171   -3.2360    0.0000 H   0  0  0  0  0  0  0  0  0  0  0  0
    3.2692    2.1157    0.0000 H   0  0  0  0  0  0  0  0  0  0  0  0
    2.0000   -1.3766    0.0000 H   0  0  0  0  0  0  0  0  0  0  0  0
   11.2120   -1.5431    0.0000 H   0  0  0  0  0  0  0  0  0  0  0  0
    8.0486   -3.6892    0.0000 H   0  0  0  0  0  0  0  0  0  0  0  0
    5.1470    4.2830    0.0000 H   0  0  0  0  0  0  0  0  0  0  0  0
    6.5009   -4.2873    0.0000 H   0  0  0  0  0  0  0  0  0  0  0  0
    3.5769    3.7463    0.0000 H   0  0  0  0  0  0  0  0  0  0  0  0
  1  8  1  0  0  0  0
  1 10  1  0  0  0  0
  2 18  1  0  0  0  0
  2 45  1  0  0  0  0
  3 25  2  0  0  0  0
  4 26  2  0  0  0  0
  5  8  1  0  0  0  0
  5 12  1  0  0  0  0
  5 16  1  0  0  0  0
  6 10  1  0  0  0  0
  6 13  1  0  0  0  0
  6 17  1  0  0  0  0
  7 25  1  0  0  0  0
  7 26  1  0  0  0  0
  7 44  1  0  0  0  0
  8  9  1  0  0  0  0
  8 33  1  1  0  0  0
  9 11  1  0  0  0  0
  9 18  1  6  0  0  0
  9 34  1  0  0  0  0
 10 11  1  0  0  0  0
 10 35  1  6  0  0  0
 11 36  1  0  0  0  0
 11 37  1  0  0  0  0
 12 13  2  0  0  0  0
 12 14  1  0  0  0  0
 13 15  1  0  0  0  0
 14 19  1  0  0  0  0
 14 21  2  0  0  0  0
 15 20  1  0  0  0  0
 15 22  2  0  0  0  0
 16 19  1  0  0  0  0
 16 23  2  0  0  0  0
 17 20  1  0  0  0  0
 17 24  2  0  0  0  0
 18 38  1  0  0  0  0
 18 39  1  0  0  0  0
 19 27  2  0  0  0  0
 20 28  2  0  0  0  0
 21 22  1  0  0  0  0
 21 25  1  0  0  0  0
 22 26  1  0  0  0  0
 23 29  1  0  0  0  0
 23 40  1  0  0  0  0
 24 30  1  0  0  0  0
 24 41  1  0  0  0  0
 27 31  1  0  0  0  0
 27 42  1  0  0  0  0
 28 32  1  0  0  0  0
 28 43  1  0  0  0  0
 29 31  2  0  0  0  0
 29 46  1  0  0  0  0
 30 32  2  0  0  0  0
 30 47  1  0  0  0  0
 31 48  1  0  0  0  0
 32 49  1  0  0  0  0
M  END
> <PUBCHEM_COMPOUND_CID>
9932061

> <PUBCHEM_COMPOUND_CANONICALIZED>
1

> <PUBCHEM_CACTVS_COMPLEXITY>
866

> <PUBCHEM_CACTVS_HBOND_ACCEPTOR>
4

> <PUBCHEM_CACTVS_HBOND_DONOR>
2

> <PUBCHEM_CACTVS_ROTATABLE_BOND>
1

> <PUBCHEM_CACTVS_SUBSKEYS>
AAADceB7OAAAAAAAAAAAAAAAAAAAAWLFiQAwYMAABYAWAFix/gAAHgAQCAAADQjhngYwwPPMFgCoAyVyVACCgCQlEiAI2CE4dNgIcPLAlZGeYQhnhCDIyQd9icCeyAACQAASACCQAASAACQAQAAAAAAAAA==

> <PUBCHEM_IUPAC_OPENEYE_NAME>
(15R,16R,18S)-16-(hydroxymethyl)-28-oxa-4,14,19-triazaoctacyclo[12.11.2.115,18.02,6.07,27.08,13.019,26.020,25]octacosa-1,6,8,10,12,20,22,24,26-nonaene-3,5-dione

> <PUBCHEM_IUPAC_CAS_NAME>
(15R,16R,18S)-16-(hydroxymethyl)-28-oxa-4,14,19-triazaoctacyclo[12.11.2.115,18.02,6.07,27.08,13.019,26.020,25]octacosa-1,6,8,10,12,20,22,24,26-nonaene-3,5-dione

> <PUBCHEM_IUPAC_NAME_MARKUP>
(15<I>R</I>,16<I>R</I>,18<I>S</I>)-16-(hydroxymethyl)-28-oxa-4,14,19-triazaoctacyclo[12.11.2.1<SUP>15,18</SUP>.0<SUP>2,6</SUP>.0<SUP>7,27</SUP>.0<SUP>8,13</SUP>.0<SUP>19,26</SUP>.0<SUP>20,25</SUP>]octacosa-1,6,8,10,12,20,22,24,26-nonaene-3,5-dione

> <PUBCHEM_IUPAC_NAME>
(15R,16R,18S)-16-(hydroxymethyl)-28-oxa-4,14,19-triazaoctacyclo[12.11.2.115,18.02,6.07,27.08,13.019,26.020,25]octacosa-1,6,8,10,12,20,22,24,26-nonaene-3,5-dione

> <PUBCHEM_IUPAC_SYSTEMATIC_NAME>
(15R,16R,18S)-16-(hydroxymethyl)-28-oxa-4,14,19-triazaoctacyclo[12.11.2.115,18.02,6.07,27.08,13.019,26.020,25]octacosa-1,6,8,10,12,20,22,24,26-nonaene-3,5-dione

> <PUBCHEM_IUPAC_TRADITIONAL_NAME>
(15R,16R,18S)-16-methylol-28-oxa-4,14,19-triazaoctacyclo[12.11.2.115,18.02,6.07,27.08,13.019,26.020,25]octacosa-1,6,8,10,12,20,22,24,26-nonaene-3,5-quinone

> <PUBCHEM_IUPAC_INCHI>
InChI=1S/C25H17N3O4/c29-10-11-9-16-27-14-7-3-1-5-12(14)17-19-20(24(31)26-23(19)30)18-13-6-2-4-8-15(13)28(25(11)32-16)22(18)21(17)27/h1-8,11,16,25,29H,9-10H2,(H,26,30,31)/t11-,16+,25-/m1/s1

> <PUBCHEM_IUPAC_INCHIKEY>
NVSJOASGKCGXBZ-SYLNULQMSA-N

> <PUBCHEM_XLOGP3_AA>
3

> <PUBCHEM_EXACT_MASS>
423.12190603

> <PUBCHEM_MOLECULAR_FORMULA>
C25H17N3O4

> <PUBCHEM_MOLECULAR_WEIGHT>
423.4

> <PUBCHEM_SMILES>
C1[C@@H]([C@@H]2N3C4=CC=CC=C4C5=C6C(=C7C8=CC=CC=C8N([C@H]1O2)C7=C53)C(=O)NC6=O)CO

> <PUBCHEM_OPENEYE_CAN_SMILES>
C1C(C2N3C4=CC=CC=C4C5=C6C(=C7C8=CC=CC=C8N(C1O2)C7=C53)C(=O)NC6=O)CO

> <PUBCHEM_OPENEYE_ISO_SMILES>
C1[C@@H]([C@@H]2N3C4=CC=CC=C4C5=C6C(=C7C8=CC=CC=C8N([C@H]1O2)C7=C53)C(=O)NC6=O)CO

> <PUBCHEM_CACTVS_TPSA>
85.5

> <PUBCHEM_MONOISOTOPIC_WEIGHT>
423.12190603

> <PUBCHEM_TOTAL_CHARGE>
0

> <PUBCHEM_HEAVY_ATOM_COUNT>
32

> <PUBCHEM_ATOM_DEF_STEREO_COUNT>
3

> <PUBCHEM_ATOM_UDEF_STEREO_COUNT>
0

> <PUBCHEM_BOND_DEF_STEREO_COUNT>
0

> <PUBCHEM_BOND_UDEF_STEREO_COUNT>
0

> <PUBCHEM_ISOTOPIC_ATOM_COUNT>
0

> <PUBCHEM_COMPONENT_COUNT>
1

> <PUBCHEM_CACTVS_TAUTO_COUNT>
-1

> <PUBCHEM_COORDINATE_TYPE>
1
5
255

> <PUBCHEM_BONDANNOTATIONS>
10  35  6
12  13  8
12  14  8
13  15  8
14  19  8
14  21  8
15  20  8
15  22  8
16  19  8
16  23  8
17  20  8
17  24  8
19  27  8
20  28  8
21  22  8
23  29  8
24  30  8
27  31  8
28  32  8
29  31  8
30  32  8
5  12  8
5  16  8
6  13  8
6  17  8
8  33  5
9  18  6

$$$$
