10047545
  -OEChem-03202506312D

 74 76  0     1  0  0  0  0  0999 V2000
    7.9939    0.6535    0.0000 O   0  0  0  0  0  0  0  0  0  0  0  0
    2.8660   -0.3465    0.0000 O   0  0  0  0  0  0  0  0  0  0  0  0
    5.4641   -4.8465    0.0000 O   0  0  0  0  0  0  0  0  0  0  0  0
    5.4641    1.1535    0.0000 C   0  0  1  0  0  0  0  0  0  0  0  0
    5.4641    0.1535    0.0000 C   0  0  2  0  0  0  0  0  0  0  0  0
    6.4103    1.4582    0.0000 C   0  0  2  0  0  0  0  0  0  0  0  0
    4.5981   -0.3465    0.0000 C   0  0  1  0  0  0  0  0  0  0  0  0
    6.4103   -0.1512    0.0000 C   0  0  0  0  0  0  0  0  0  0  0  0
    6.9939    0.6535    0.0000 C   0  0  2  0  0  0  0  0  0  0  0  0
    4.5981    1.6535    0.0000 C   0  0  0  0  0  0  0  0  0  0  0  0
    6.7210    2.4087    0.0000 C   0  0  1  0  0  0  0  0  0  0  0  0
    3.7320    0.1535    0.0000 C   0  0  1  0  0  0  0  0  0  0  0  0
    3.7320    1.1535    0.0000 C   0  0  0  0  0  0  0  0  0  0  0  0
    5.4641    2.1535    0.0000 C   0  0  0  0  0  0  0  0  0  0  0  0
    4.5981   -1.3465    0.0000 C   0  0  0  0  0  0  0  0  0  0  0  0
    7.6995    2.6150    0.0000 C   0  0  0  0  0  0  0  0  0  0  0  0
    6.0531    3.1530    0.0000 C   0  0  0  0  0  0  0  0  0  0  0  0
    3.7320   -1.8465    0.0000 C   0  0  0  0  0  0  0  0  0  0  0  0
    8.0102    3.5655    0.0000 C   0  0  0  0  0  0  0  0  0  0  0  0
    3.7320   -2.8465    0.0000 C   0  0  0  0  0  0  0  0  0  0  0  0
    8.9887    3.7717    0.0000 C   0  0  0  0  0  0  0  0  0  0  0  0
    9.2993    4.7222    0.0000 C   0  0  0  0  0  0  0  0  0  0  0  0
    2.8660   -3.3465    0.0000 C   0  0  0  0  0  0  0  0  0  0  0  0
    4.5981   -3.3465    0.0000 C   0  0  0  0  0  0  0  0  0  0  0  0
   10.2778    4.9284    0.0000 C   0  0  0  0  0  0  0  0  0  0  0  0
    8.6315    5.4665    0.0000 C   0  0  0  0  0  0  0  0  0  0  0  0
    2.8660   -4.3465    0.0000 C   0  0  0  0  0  0  0  0  0  0  0  0
    4.5981   -4.3465    0.0000 C   0  0  0  0  0  0  0  0  0  0  0  0
    2.0000   -2.8465    0.0000 C   0  0  0  0  0  0  0  0  0  0  0  0
    3.7320   -4.8465    0.0000 C   0  0  0  0  0  0  0  0  0  0  0  0
    5.5540   -0.6917    0.0000 H   0  0  0  0  0  0  0  0  0  0  0  0
    7.2500    1.5901    0.0000 H   0  0  0  0  0  0  0  0  0  0  0  0
    5.1350   -0.6565    0.0000 H   0  0  0  0  0  0  0  0  0  0  0  0
    6.1593   -0.7182    0.0000 H   0  0  0  0  0  0  0  0  0  0  0  0
    6.9477   -0.4605    0.0000 H   0  0  0  0  0  0  0  0  0  0  0  0
    7.2756    1.2058    0.0000 H   0  0  0  0  0  0  0  0  0  0  0  0
    4.9966    2.1284    0.0000 H   0  0  0  0  0  0  0  0  0  0  0  0
    4.1996    2.1284    0.0000 H   0  0  0  0  0  0  0  0  0  0  0  0
    6.1143    2.2809    0.0000 H   0  0  0  0  0  0  0  0  0  0  0  0
    3.7320   -0.4665    0.0000 H   0  0  0  0  0  0  0  0  0  0  0  0
    3.5200    1.7361    0.0000 H   0  0  0  0  0  0  0  0  0  0  0  0
    3.1215    1.0458    0.0000 H   0  0  0  0  0  0  0  0  0  0  0  0
    6.0841    2.1535    0.0000 H   0  0  0  0  0  0  0  0  0  0  0  0
    5.4641    2.7735    0.0000 H   0  0  0  0  0  0  0  0  0  0  0  0
    4.8441    2.1535    0.0000 H   0  0  0  0  0  0  0  0  0  0  0  0
    4.8101   -1.9291    0.0000 H   0  0  0  0  0  0  0  0  0  0  0  0
    5.2087   -1.2388    0.0000 H   0  0  0  0  0  0  0  0  0  0  0  0
    7.7201    1.9953    0.0000 H   0  0  0  0  0  0  0  0  0  0  0  0
    8.3133    2.5276    0.0000 H   0  0  0  0  0  0  0  0  0  0  0  0
    6.5146    3.5671    0.0000 H   0  0  0  0  0  0  0  0  0  0  0  0
    5.6391    3.6145    0.0000 H   0  0  0  0  0  0  0  0  0  0  0  0
    5.5917    2.7390    0.0000 H   0  0  0  0  0  0  0  0  0  0  0  0
    8.3039    0.1165    0.0000 H   0  0  0  0  0  0  0  0  0  0  0  0
    3.5200   -1.2639    0.0000 H   0  0  0  0  0  0  0  0  0  0  0  0
    3.1215   -1.9542    0.0000 H   0  0  0  0  0  0  0  0  0  0  0  0
    2.3291   -0.0365    0.0000 H   0  0  0  0  0  0  0  0  0  0  0  0
    7.9896    4.1851    0.0000 H   0  0  0  0  0  0  0  0  0  0  0  0
    7.3963    3.6528    0.0000 H   0  0  0  0  0  0  0  0  0  0  0  0
    9.0092    3.1520    0.0000 H   0  0  0  0  0  0  0  0  0  0  0  0
    9.6025    3.6843    0.0000 H   0  0  0  0  0  0  0  0  0  0  0  0
    9.4919    5.3115    0.0000 H   0  0  0  0  0  0  0  0  0  0  0  0
    5.1350   -3.0365    0.0000 H   0  0  0  0  0  0  0  0  0  0  0  0
   10.4057    4.3218    0.0000 H   0  0  0  0  0  0  0  0  0  0  0  0
   10.8845    5.0563    0.0000 H   0  0  0  0  0  0  0  0  0  0  0  0
   10.1500    5.5351    0.0000 H   0  0  0  0  0  0  0  0  0  0  0  0
    9.0929    5.8806    0.0000 H   0  0  0  0  0  0  0  0  0  0  0  0
    8.2174    5.9280    0.0000 H   0  0  0  0  0  0  0  0  0  0  0  0
    8.1700    5.0524    0.0000 H   0  0  0  0  0  0  0  0  0  0  0  0
    2.3291   -4.6565    0.0000 H   0  0  0  0  0  0  0  0  0  0  0  0
    2.3100   -2.3096    0.0000 H   0  0  0  0  0  0  0  0  0  0  0  0
    1.4631   -2.5365    0.0000 H   0  0  0  0  0  0  0  0  0  0  0  0
    1.6900   -3.3834    0.0000 H   0  0  0  0  0  0  0  0  0  0  0  0
    3.7320   -5.4665    0.0000 H   0  0  0  0  0  0  0  0  0  0  0  0
    5.4641   -5.4665    0.0000 H   0  0  0  0  0  0  0  0  0  0  0  0
  9  1  1  1  0  0  0
  1 53  1  0  0  0  0
 12  2  1  6  0  0  0
  2 56  1  0  0  0  0
  3 28  1  0  0  0  0
  3 74  1  0  0  0  0
  4  5  1  0  0  0  0
  4  6  1  0  0  0  0
  4 10  1  0  0  0  0
  4 14  1  1  0  0  0
  5  7  1  0  0  0  0
  5  8  1  0  0  0  0
  5 31  1  6  0  0  0
  6  9  1  0  0  0  0
  6 11  1  0  0  0  0
  6 32  1  6  0  0  0
  7 12  1  0  0  0  0
  7 15  1  6  0  0  0
  7 33  1  0  0  0  0
  8  9  1  0  0  0  0
  8 34  1  0  0  0  0
  8 35  1  0  0  0  0
  9 36  1  0  0  0  0
 10 13  1  0  0  0  0
 10 37  1  0  0  0  0
 10 38  1  0  0  0  0
 11 16  1  0  0  0  0
 11 17  1  6  0  0  0
 11 39  1  0  0  0  0
 12 13  1  0  0  0  0
 12 40  1  0  0  0  0
 13 41  1  0  0  0  0
 13 42  1  0  0  0  0
 14 43  1  0  0  0  0
 14 44  1  0  0  0  0
 14 45  1  0  0  0  0
 15 18  1  0  0  0  0
 15 46  1  0  0  0  0
 15 47  1  0  0  0  0
 16 19  1  0  0  0  0
 16 48  1  0  0  0  0
 16 49  1  0  0  0  0
 17 50  1  0  0  0  0
 17 51  1  0  0  0  0
 17 52  1  0  0  0  0
 18 20  1  0  0  0  0
 18 54  1  0  0  0  0
 18 55  1  0  0  0  0
 19 21  1  0  0  0  0
 19 57  1  0  0  0  0
 19 58  1  0  0  0  0
 20 23  2  0  0  0  0
 20 24  1  0  0  0  0
 21 22  1  0  0  0  0
 21 59  1  0  0  0  0
 21 60  1  0  0  0  0
 22 25  1  0  0  0  0
 22 26  1  0  0  0  0
 22 61  1  0  0  0  0
 23 27  1  0  0  0  0
 23 29  1  0  0  0  0
 24 28  2  0  0  0  0
 24 62  1  0  0  0  0
 25 63  1  0  0  0  0
 25 64  1  0  0  0  0
 25 65  1  0  0  0  0
 26 66  1  0  0  0  0
 26 67  1  0  0  0  0
 26 68  1  0  0  0  0
 27 30  2  0  0  0  0
 27 69  1  0  0  0  0
 28 30  1  0  0  0  0
 29 70  1  0  0  0  0
 29 71  1  0  0  0  0
 29 72  1  0  0  0  0
 30 73  1  0  0  0  0
M  END
> <PUBCHEM_COMPOUND_CID>
10047545

> <PUBCHEM_COMPOUND_CANONICALIZED>
1

> <PUBCHEM_CACTVS_COMPLEXITY>
534

> <PUBCHEM_CACTVS_HBOND_ACCEPTOR>
3

> <PUBCHEM_CACTVS_HBOND_DONOR>
3

> <PUBCHEM_CACTVS_ROTATABLE_BOND>
8

> <PUBCHEM_CACTVS_SUBSKEYS>
AAADcfB4MAAAAAAAAAAAAAAAAAAAAYAAAAAwYAAAAAAAAGABAAAAGgAACAAADxSgmAIyBoAAAgCAAiBCAAACAAAgIAAIiAAGCIgINiKCERKAcAAkwBEImAeA4PQPoAABAAAQAABAAAYAADAAAYAADAAAAA==

> <PUBCHEM_IUPAC_OPENEYE_NAME>
(1R,2S,3aS,4S,5R,7aS)-1-[(1R)-1,5-dimethylhexyl]-4-[2-(5-hydroxy-2-methyl-phenyl)ethyl]-7a-methyl-1,2,3,3a,4,5,6,7-octahydroindene-2,5-diol

> <PUBCHEM_IUPAC_CAS_NAME>
(1R,2S,3aS,4S,5R,7aS)-4-[2-(5-hydroxy-2-methylphenyl)ethyl]-7a-methyl-1-[(2R)-6-methylheptan-2-yl]-1,2,3,3a,4,5,6,7-octahydroindene-2,5-diol

> <PUBCHEM_IUPAC_NAME_MARKUP>
(1<I>R</I>,2<I>S</I>,3<I>a</I><I>S</I>,4<I>S</I>,5<I>R</I>,7<I>a</I><I>S</I>)-4-[2-(5-hydroxy-2-methylphenyl)ethyl]-7<I>a</I>-methyl-1-[(2<I>R</I>)-6-methylheptan-2-yl]-1,2,3,3<I>a</I>,4,5,6,7-octahydroindene-2,5-diol

> <PUBCHEM_IUPAC_NAME>
(1R,2S,3aS,4S,5R,7aS)-4-[2-(5-hydroxy-2-methylphenyl)ethyl]-7a-methyl-1-[(2R)-6-methylheptan-2-yl]-1,2,3,3a,4,5,6,7-octahydroindene-2,5-diol

> <PUBCHEM_IUPAC_SYSTEMATIC_NAME>
(1R,2S,3aS,4S,5R,7aS)-7a-methyl-1-[(2R)-6-methylheptan-2-yl]-4-[2-(2-methyl-5-oxidanyl-phenyl)ethyl]-1,2,3,3a,4,5,6,7-octahydroindene-2,5-diol

> <PUBCHEM_IUPAC_TRADITIONAL_NAME>
(1R,2S,3aS,4S,5R,7aS)-1-[(1R)-1,5-dimethylhexyl]-4-[2-(5-hydroxy-2-methyl-phenyl)ethyl]-7a-methyl-1,2,3,3a,4,5,6,7-octahydroindene-2,5-diol

> <PUBCHEM_IUPAC_INCHI>
InChI=1S/C27H44O3/c1-17(2)7-6-8-19(4)26-25(30)16-23-22(24(29)13-14-27(23,26)5)12-10-20-15-21(28)11-9-18(20)3/h9,11,15,17,19,22-26,28-30H,6-8,10,12-14,16H2,1-5H3/t19-,22+,23+,24-,25+,26+,27+/m1/s1

> <PUBCHEM_IUPAC_INCHIKEY>
XXLLTYLTCDARFZ-OHSNSYSLSA-N

> <PUBCHEM_XLOGP3_AA>
7.1

> <PUBCHEM_EXACT_MASS>
416.32904526

> <PUBCHEM_MOLECULAR_FORMULA>
C27H44O3

> <PUBCHEM_MOLECULAR_WEIGHT>
416.6

> <PUBCHEM_SMILES>
CC1=C(C=C(C=C1)O)CC[C@@H]2[C@@H](CC[C@]3([C@H]2C[C@@H]([C@@H]3[C@H](C)CCCC(C)C)O)C)O

> <PUBCHEM_OPENEYE_CAN_SMILES>
CC1=C(C=C(C=C1)O)CCC2C(CCC3(C2CC(C3C(C)CCCC(C)C)O)C)O

> <PUBCHEM_OPENEYE_ISO_SMILES>
CC1=C(C=C(C=C1)O)CC[C@@H]2[C@@H](CC[C@]3([C@H]2C[C@@H]([C@@H]3[C@H](C)CCCC(C)C)O)C)O

> <PUBCHEM_CACTVS_TPSA>
60.7

> <PUBCHEM_MONOISOTOPIC_WEIGHT>
416.32904526

> <PUBCHEM_TOTAL_CHARGE>
0

> <PUBCHEM_HEAVY_ATOM_COUNT>
30

> <PUBCHEM_ATOM_DEF_STEREO_COUNT>
7

> <PUBCHEM_ATOM_UDEF_STEREO_COUNT>
0

> <PUBCHEM_BOND_DEF_STEREO_COUNT>
0

> <PUBCHEM_BOND_UDEF_STEREO_COUNT>
0

> <PUBCHEM_ISOTOPIC_ATOM_COUNT>
0

> <PUBCHEM_COMPONENT_COUNT>
1

> <PUBCHEM_CACTVS_TAUTO_COUNT>
-1

> <PUBCHEM_COORDINATE_TYPE>
1
5
255

> <PUBCHEM_BONDANNOTATIONS>
9  1  5
11  17  6
12  2  6
20  23  8
20  24  8
23  27  8
24  28  8
27  30  8
28  30  8
4  14  5
5  31  6
6  32  6
7  15  6

$$$$
