49830728
  -OEChem-03202503152D

 35 36  0     1  0  0  0  0  0999 V2000
    2.8090    2.2694    0.0000 Cl  0  0  0  0  0  0  0  0  0  0  0  0
    3.6180   -1.3184    0.0000 S   0  0  0  0  0  0  0  0  0  0  0  0
    6.2731    0.2694    0.0000 N   0  0  0  0  0  0  0  0  0  0  0  0
    4.5411    0.2694    0.0000 N   0  0  0  0  0  0  0  0  0  0  0  0
    5.4071    1.7694    0.0000 N   0  0  0  0  0  0  0  0  0  0  0  0
    2.8090    0.2694    0.0000 N   0  0  0  0  0  0  0  0  0  0  0  0
    2.0000   -1.3184    0.0000 N   0  0  0  0  0  0  0  0  0  0  0  0
    8.0052    0.2694    0.0000 C   0  0  0  0  0  0  0  0  0  0  0  0
    7.1391    0.7694    0.0000 C   0  0  3  0  0  0  0  0  0  0  0  0
    8.8712    0.7694    0.0000 C   0  0  0  0  0  0  0  0  0  0  0  0
    8.0052   -0.7306    0.0000 C   0  0  0  0  0  0  0  0  0  0  0  0
    7.1391    1.7694    0.0000 C   0  0  0  0  0  0  0  0  0  0  0  0
    5.4071    0.7694    0.0000 C   0  0  0  0  0  0  0  0  0  0  0  0
    3.6750    0.7694    0.0000 C   0  0  0  0  0  0  0  0  0  0  0  0
    3.6750    1.7694    0.0000 C   0  0  0  0  0  0  0  0  0  0  0  0
    4.5411    2.2694    0.0000 C   0  0  0  0  0  0  0  0  0  0  0  0
    2.8090   -0.7306    0.0000 C   0  0  0  0  0  0  0  0  0  0  0  0
    3.3090   -2.2694    0.0000 C   0  0  0  0  0  0  0  0  0  0  0  0
    2.3090   -2.2694    0.0000 C   0  0  0  0  0  0  0  0  0  0  0  0
    8.5421   -0.0406    0.0000 H   0  0  0  0  0  0  0  0  0  0  0  0
    7.1391    0.1494    0.0000 H   0  0  0  0  0  0  0  0  0  0  0  0
    9.1812    0.2325    0.0000 H   0  0  0  0  0  0  0  0  0  0  0  0
    9.4081    1.0794    0.0000 H   0  0  0  0  0  0  0  0  0  0  0  0
    8.5612    1.3064    0.0000 H   0  0  0  0  0  0  0  0  0  0  0  0
    7.3852   -0.7306    0.0000 H   0  0  0  0  0  0  0  0  0  0  0  0
    8.0052   -1.3506    0.0000 H   0  0  0  0  0  0  0  0  0  0  0  0
    8.6252   -0.7306    0.0000 H   0  0  0  0  0  0  0  0  0  0  0  0
    7.7591    1.7694    0.0000 H   0  0  0  0  0  0  0  0  0  0  0  0
    7.1391    2.3894    0.0000 H   0  0  0  0  0  0  0  0  0  0  0  0
    6.5191    1.7694    0.0000 H   0  0  0  0  0  0  0  0  0  0  0  0
    6.2731   -0.3506    0.0000 H   0  0  0  0  0  0  0  0  0  0  0  0
    4.5411    2.8894    0.0000 H   0  0  0  0  0  0  0  0  0  0  0  0
    2.2721    0.5794    0.0000 H   0  0  0  0  0  0  0  0  0  0  0  0
    3.6734   -2.7710    0.0000 H   0  0  0  0  0  0  0  0  0  0  0  0
    1.9446   -2.7710    0.0000 H   0  0  0  0  0  0  0  0  0  0  0  0
  1 15  1  0  0  0  0
  2 17  1  0  0  0  0
  2 18  1  0  0  0  0
  3  9  1  0  0  0  0
  3 13  1  0  0  0  0
  3 31  1  0  0  0  0
  4 13  1  0  0  0  0
  4 14  2  0  0  0  0
  5 13  2  0  0  0  0
  5 16  1  0  0  0  0
  6 14  1  0  0  0  0
  6 17  1  0  0  0  0
  6 33  1  0  0  0  0
  7 17  2  0  0  0  0
  7 19  1  0  0  0  0
  8  9  1  0  0  0  0
  8 10  1  0  0  0  0
  8 11  1  0  0  0  0
  8 20  1  0  0  0  0
  9 12  1  0  0  0  0
  9 21  1  0  0  0  0
 10 22  1  0  0  0  0
 10 23  1  0  0  0  0
 10 24  1  0  0  0  0
 11 25  1  0  0  0  0
 11 26  1  0  0  0  0
 11 27  1  0  0  0  0
 12 28  1  0  0  0  0
 12 29  1  0  0  0  0
 12 30  1  0  0  0  0
 14 15  1  0  0  0  0
 15 16  2  0  0  0  0
 16 32  1  0  0  0  0
 18 19  2  0  0  0  0
 18 34  1  0  0  0  0
 19 35  1  0  0  0  0
M  END
> <PUBCHEM_COMPOUND_CID>
49830728

> <PUBCHEM_COMPOUND_CANONICALIZED>
1

> <PUBCHEM_CACTVS_COMPLEXITY>
281

> <PUBCHEM_CACTVS_HBOND_ACCEPTOR>
6

> <PUBCHEM_CACTVS_HBOND_DONOR>
2

> <PUBCHEM_CACTVS_ROTATABLE_BOND>
5

> <PUBCHEM_CACTVS_SUBSKEYS>
AAADceBzgABEAAAAAAAAAAAAAAAAAWAAAAAsAAAAAAAAAAAB4AAAHAYQAAAADSrFUiSvsZbIEAikABJnZACA8KlRC7lJUKw4ZBCACIBASEBEBAgIEAJAACAAAAAIAAAAAAAAAAAAAAAAAAAAAAAAAAAAAA==

> <PUBCHEM_IUPAC_OPENEYE_NAME>
5-chloro-N2-(1,2-dimethylpropyl)-N4-thiazol-2-yl-pyrimidine-2,4-diamine

> <PUBCHEM_IUPAC_CAS_NAME>
5-chloro-N2-(3-methylbutan-2-yl)-N4-(2-thiazolyl)pyrimidine-2,4-diamine

> <PUBCHEM_IUPAC_NAME_MARKUP>
5-chloro-2-<I>N</I>-(3-methylbutan-2-yl)-4-<I>N</I>-(1,3-thiazol-2-yl)pyrimidine-2,4-diamine

> <PUBCHEM_IUPAC_NAME>
5-chloro-2-N-(3-methylbutan-2-yl)-4-N-(1,3-thiazol-2-yl)pyrimidine-2,4-diamine

> <PUBCHEM_IUPAC_SYSTEMATIC_NAME>
5-chloranyl-N2-(3-methylbutan-2-yl)-N4-(1,3-thiazol-2-yl)pyrimidine-2,4-diamine

> <PUBCHEM_IUPAC_TRADITIONAL_NAME>
[5-chloro-2-(1,2-dimethylpropylamino)pyrimidin-4-yl]-thiazol-2-yl-amine

> <PUBCHEM_IUPAC_INCHI>
InChI=1S/C12H16ClN5S/c1-7(2)8(3)16-11-15-6-9(13)10(17-11)18-12-14-4-5-19-12/h4-8H,1-3H3,(H2,14,15,16,17,18)

> <PUBCHEM_IUPAC_INCHIKEY>
OFGKHGRQQKNHAV-UHFFFAOYSA-N

> <PUBCHEM_XLOGP3_AA>
4.2

> <PUBCHEM_EXACT_MASS>
297.0814944

> <PUBCHEM_MOLECULAR_FORMULA>
C12H16ClN5S

> <PUBCHEM_MOLECULAR_WEIGHT>
297.81

> <PUBCHEM_SMILES>
CC(C)C(C)NC1=NC=C(C(=N1)NC2=NC=CS2)Cl

> <PUBCHEM_OPENEYE_CAN_SMILES>
CC(C)C(C)NC1=NC=C(C(=N1)NC2=NC=CS2)Cl

> <PUBCHEM_OPENEYE_ISO_SMILES>
CC(C)C(C)NC1=NC=C(C(=N1)NC2=NC=CS2)Cl

> <PUBCHEM_CACTVS_TPSA>
91

> <PUBCHEM_MONOISOTOPIC_WEIGHT>
297.0814944

> <PUBCHEM_TOTAL_CHARGE>
0

> <PUBCHEM_HEAVY_ATOM_COUNT>
19

> <PUBCHEM_ATOM_DEF_STEREO_COUNT>
0

> <PUBCHEM_ATOM_UDEF_STEREO_COUNT>
1

> <PUBCHEM_BOND_DEF_STEREO_COUNT>
0

> <PUBCHEM_BOND_UDEF_STEREO_COUNT>
0

> <PUBCHEM_ISOTOPIC_ATOM_COUNT>
0

> <PUBCHEM_COMPONENT_COUNT>
1

> <PUBCHEM_CACTVS_TAUTO_COUNT>
-1

> <PUBCHEM_COORDINATE_TYPE>
1
5
255

> <PUBCHEM_BONDANNOTATIONS>
14  15  8
15  16  8
18  19  8
2  17  8
2  18  8
4  13  8
4  14  8
5  13  8
5  16  8
7  17  8
7  19  8
9  12  3

$$$$
