44378580
  -OEChem-03202506082D

164165  0     1  0  0  0  0  0999 V2000
    5.0347   -4.3100    0.0000 S   0  0  0  0  0  0  0  0  0  0  0  0
    9.9674    0.1900    0.0000 O   0  0  0  0  0  0  0  0  0  0  0  0
   12.6994    2.6900    0.0000 O   0  0  0  0  0  0  0  0  0  0  0  0
    7.2353    2.6900    0.0000 O   0  0  0  0  0  0  0  0  0  0  0  0
   15.4315    0.1900    0.0000 O   0  0  0  0  0  0  0  0  0  0  0  0
    3.6372    1.6900    0.0000 O   0  0  0  0  0  0  0  0  0  0  0  0
   17.1635    3.1900    0.0000 O   0  0  0  0  0  0  0  0  0  0  0  0
    4.5033    0.1900    0.0000 O   0  0  0  0  0  0  0  0  0  0  0  0
   14.9629   -6.8100    0.0000 O   0  0  0  0  0  0  0  0  0  0  0  0
   12.2308   -4.3100    0.0000 O   0  0  0  0  0  0  0  0  0  0  0  0
    9.4988   -6.8100    0.0000 O   0  0  0  0  0  0  0  0  0  0  0  0
    5.0347   -3.3100    0.0000 O   0  0  0  0  0  0  0  0  0  0  0  0
    6.0347   -4.3100    0.0000 O   0  0  0  0  0  0  0  0  0  0  0  0
    6.7667   -4.3100    0.0000 O   0  0  0  0  0  0  0  0  0  0  0  0
   11.6994    1.1900    0.0000 N   0  0  0  0  0  0  0  0  0  0  0  0
    8.9674    1.6900    0.0000 N   0  0  0  0  0  0  0  0  0  0  0  0
   14.4315    1.6900    0.0000 N   0  0  0  0  0  0  0  0  0  0  0  0
    6.2353    1.1900    0.0000 N   0  0  0  0  0  0  0  0  0  0  0  0
   17.1635    1.1900    0.0000 N   0  0  0  0  0  0  0  0  0  0  0  0
    9.1013    4.6900    0.0000 N   0  0  0  0  0  0  0  0  0  0  0  0
    8.7353   -1.1760    0.0000 N   0  0  0  0  0  0  0  0  0  0  0  0
   15.9315   -1.1760    0.0000 N   0  0  0  0  0  0  0  0  0  0  0  0
   13.2308   -5.8100    0.0000 N   0  0  0  0  0  0  0  0  0  0  0  0
    3.6372    4.6900    0.0000 N   0  0  0  0  0  0  0  0  0  0  0  0
   10.4988   -5.3100    0.0000 N   0  0  0  0  0  0  0  0  0  0  0  0
    7.7667   -5.8100    0.0000 N   0  0  0  0  0  0  0  0  0  0  0  0
    5.0347   -5.3100    0.0000 N   0  0  0  0  0  0  0  0  0  0  0  0
    8.2353    6.1900    0.0000 N   0  0  0  0  0  0  0  0  0  0  0  0
    9.9674    6.1900    0.0000 N   0  0  0  0  0  0  0  0  0  0  0  0
   10.2353   -2.0420    0.0000 N   0  0  0  0  0  0  0  0  0  0  0  0
    8.7354   -2.9080    0.0000 N   0  0  0  0  0  0  0  0  0  0  0  0
   17.4315   -2.0420    0.0000 N   0  0  0  0  0  0  0  0  0  0  0  0
   15.9315   -2.9080    0.0000 N   0  0  0  0  0  0  0  0  0  0  0  0
    2.7712    6.1900    0.0000 N   0  0  0  0  0  0  0  0  0  0  0  0
    4.5033    6.1900    0.0000 N   0  0  0  0  0  0  0  0  0  0  0  0
    2.5138   -1.6440    0.0000 N   0  0  0  0  0  0  0  0  0  0  0  0
   10.8334    1.6900    0.0000 C   0  0  1  0  0  0  0  0  0  0  0  0
    8.1013    1.1900    0.0000 C   0  0  1  0  0  0  0  0  0  0  0  0
   10.8334    2.6900    0.0000 C   0  0  0  0  0  0  0  0  0  0  0  0
   13.5654    1.1900    0.0000 C   0  0  1  0  0  0  0  0  0  0  0  0
    8.1013    0.1900    0.0000 C   0  0  0  0  0  0  0  0  0  0  0  0
    9.9674    1.1900    0.0000 C   0  0  0  0  0  0  0  0  0  0  0  0
   13.5654    0.1900    0.0000 C   0  0  0  0  0  0  0  0  0  0  0  0
    9.9674    3.1900    0.0000 C   0  0  0  0  0  0  0  0  0  0  0  0
   12.6994    1.6900    0.0000 C   0  0  0  0  0  0  0  0  0  0  0  0
    7.2353   -0.3100    0.0000 C   0  0  0  0  0  0  0  0  0  0  0  0
    7.2353    1.6900    0.0000 C   0  0  0  0  0  0  0  0  0  0  0  0
   14.4315   -0.3100    0.0000 C   0  0  0  0  0  0  0  0  0  0  0  0
    5.3693    1.6900    0.0000 C   0  0  1  0  0  0  0  0  0  0  0  0
    9.9674    4.1900    0.0000 C   0  0  0  0  0  0  0  0  0  0  0  0
    5.3693    2.6900    0.0000 C   0  0  0  0  0  0  0  0  0  0  0  0
    7.7354   -1.1760    0.0000 C   0  0  0  0  0  0  0  0  0  0  0  0
   15.4315    1.1900    0.0000 C   0  0  0  0  0  0  0  0  0  0  0  0
   16.2975    1.6900    0.0000 C   0  0  2  0  0  0  0  0  0  0  0  0
   14.9315   -1.1760    0.0000 C   0  0  0  0  0  0  0  0  0  0  0  0
    4.5033    3.1900    0.0000 C   0  0  0  0  0  0  0  0  0  0  0  0
    4.5033    1.1900    0.0000 C   0  0  0  0  0  0  0  0  0  0  0  0
   16.2975    2.6900    0.0000 C   0  0  0  0  0  0  0  0  0  0  0  0
    4.5033    4.1900    0.0000 C   0  0  0  0  0  0  0  0  0  0  0  0
   14.0968   -5.3100    0.0000 C   0  0  2  0  0  0  0  0  0  0  0  0
   14.9629   -5.8100    0.0000 C   0  0  0  0  0  0  0  0  0  0  0  0
    9.1013    5.6900    0.0000 C   0  0  0  0  0  0  0  0  0  0  0  0
   14.0968   -4.3100    0.0000 C   0  0  0  0  0  0  0  0  0  0  0  0
   11.3648   -5.8100    0.0000 C   0  0  2  0  0  0  0  0  0  0  0  0
    9.2353   -2.0420    0.0000 C   0  0  0  0  0  0  0  0  0  0  0  0
   12.2308   -5.3100    0.0000 C   0  0  0  0  0  0  0  0  0  0  0  0
   16.4315   -2.0420    0.0000 C   0  0  0  0  0  0  0  0  0  0  0  0
    8.6327   -5.3100    0.0000 C   0  0  2  0  0  0  0  0  0  0  0  0
    5.9007   -5.8100    0.0000 C   0  0  2  0  0  0  0  0  0  0  0  0
    9.4988   -5.8100    0.0000 C   0  0  0  0  0  0  0  0  0  0  0  0
   11.3648   -6.8100    0.0000 C   0  0  0  0  0  0  0  0  0  0  0  0
    6.7667   -5.3100    0.0000 C   0  0  0  0  0  0  0  0  0  0  0  0
    3.6372    5.6900    0.0000 C   0  0  0  0  0  0  0  0  0  0  0  0
    4.0347   -4.3100    0.0000 C   0  0  0  0  0  0  0  0  0  0  0  0
    8.6327   -4.3100    0.0000 C   0  0  0  0  0  0  0  0  0  0  0  0
    5.9007   -6.8100    0.0000 C   0  0  0  0  0  0  0  0  0  0  0  0
    3.5347   -3.4440    0.0000 C   0  0  0  0  0  0  0  0  0  0  0  0
    2.5347   -3.4440    0.0000 C   0  0  0  0  0  0  0  0  0  0  0  0
    3.5347   -5.1760    0.0000 C   0  0  0  0  0  0  0  0  0  0  0  0
    2.0347   -4.3100    0.0000 C   0  0  0  0  0  0  0  0  0  0  0  0
    2.5347   -5.1760    0.0000 C   0  0  0  0  0  0  0  0  0  0  0  0
    4.0693   -2.5500    0.0000 C   0  0  0  0  0  0  0  0  0  0  0  0
    2.0000   -2.5500    0.0000 C   0  0  0  0  0  0  0  0  0  0  0  0
    3.5555   -1.6440    0.0000 C   0  0  0  0  0  0  0  0  0  0  0  0
   11.3703    2.0000    0.0000 H   0  0  0  0  0  0  0  0  0  0  0  0
    8.6383    0.8800    0.0000 H   0  0  0  0  0  0  0  0  0  0  0  0
   11.4440    2.5823    0.0000 H   0  0  0  0  0  0  0  0  0  0  0  0
   11.0454    3.2726    0.0000 H   0  0  0  0  0  0  0  0  0  0  0  0
   14.1024    0.8800    0.0000 H   0  0  0  0  0  0  0  0  0  0  0  0
    8.3134   -0.3926    0.0000 H   0  0  0  0  0  0  0  0  0  0  0  0
    8.7119    0.2977    0.0000 H   0  0  0  0  0  0  0  0  0  0  0  0
   12.9548    0.2977    0.0000 H   0  0  0  0  0  0  0  0  0  0  0  0
   13.3534   -0.3926    0.0000 H   0  0  0  0  0  0  0  0  0  0  0  0
   12.2363    0.8800    0.0000 H   0  0  0  0  0  0  0  0  0  0  0  0
    9.5043    2.0000    0.0000 H   0  0  0  0  0  0  0  0  0  0  0  0
    9.3568    3.2977    0.0000 H   0  0  0  0  0  0  0  0  0  0  0  0
    9.7553    2.6074    0.0000 H   0  0  0  0  0  0  0  0  0  0  0  0
    6.9253    0.2269    0.0000 H   0  0  0  0  0  0  0  0  0  0  0  0
    6.6984   -0.6200    0.0000 H   0  0  0  0  0  0  0  0  0  0  0  0
   15.0420   -0.2023    0.0000 H   0  0  0  0  0  0  0  0  0  0  0  0
   13.9931   -0.7484    0.0000 H   0  0  0  0  0  0  0  0  0  0  0  0
   14.9684    2.0000    0.0000 H   0  0  0  0  0  0  0  0  0  0  0  0
    5.9062    2.0000    0.0000 H   0  0  0  0  0  0  0  0  0  0  0  0
    6.7722    0.8800    0.0000 H   0  0  0  0  0  0  0  0  0  0  0  0
   10.5779    4.0823    0.0000 H   0  0  0  0  0  0  0  0  0  0  0  0
   10.1794    4.7726    0.0000 H   0  0  0  0  0  0  0  0  0  0  0  0
    5.9799    2.5823    0.0000 H   0  0  0  0  0  0  0  0  0  0  0  0
    5.5813    3.2726    0.0000 H   0  0  0  0  0  0  0  0  0  0  0  0
    7.1528   -1.3881    0.0000 H   0  0  0  0  0  0  0  0  0  0  0  0
    7.8430   -1.7866    0.0000 H   0  0  0  0  0  0  0  0  0  0  0  0
   16.2975    1.0700    0.0000 H   0  0  0  0  0  0  0  0  0  0  0  0
   14.3489   -1.3881    0.0000 H   0  0  0  0  0  0  0  0  0  0  0  0
   15.0392   -1.7866    0.0000 H   0  0  0  0  0  0  0  0  0  0  0  0
    3.8927    3.2977    0.0000 H   0  0  0  0  0  0  0  0  0  0  0  0
    4.2912    2.6074    0.0000 H   0  0  0  0  0  0  0  0  0  0  0  0
   16.0854    3.2726    0.0000 H   0  0  0  0  0  0  0  0  0  0  0  0
   15.6869    2.5823    0.0000 H   0  0  0  0  0  0  0  0  0  0  0  0
   17.7004    0.8800    0.0000 H   0  0  0  0  0  0  0  0  0  0  0  0
    5.1138    4.0823    0.0000 H   0  0  0  0  0  0  0  0  0  0  0  0
    4.7153    4.7726    0.0000 H   0  0  0  0  0  0  0  0  0  0  0  0
   13.5599   -5.0000    0.0000 H   0  0  0  0  0  0  0  0  0  0  0  0
   13.7677   -6.1200    0.0000 H   0  0  0  0  0  0  0  0  0  0  0  0
   14.7168   -4.3100    0.0000 H   0  0  0  0  0  0  0  0  0  0  0  0
   14.0968   -3.6900    0.0000 H   0  0  0  0  0  0  0  0  0  0  0  0
   13.4768   -4.3100    0.0000 H   0  0  0  0  0  0  0  0  0  0  0  0
   10.8279   -6.1200    0.0000 H   0  0  0  0  0  0  0  0  0  0  0  0
    3.1003    1.3800    0.0000 H   0  0  0  0  0  0  0  0  0  0  0  0
   17.1635    3.8100    0.0000 H   0  0  0  0  0  0  0  0  0  0  0  0
    8.0958   -5.0000    0.0000 H   0  0  0  0  0  0  0  0  0  0  0  0
   11.0357   -5.0000    0.0000 H   0  0  0  0  0  0  0  0  0  0  0  0
    5.3637   -6.1200    0.0000 H   0  0  0  0  0  0  0  0  0  0  0  0
   10.7448   -6.8100    0.0000 H   0  0  0  0  0  0  0  0  0  0  0  0
   11.3648   -7.4300    0.0000 H   0  0  0  0  0  0  0  0  0  0  0  0
   11.9848   -6.8100    0.0000 H   0  0  0  0  0  0  0  0  0  0  0  0
    8.3036   -6.1200    0.0000 H   0  0  0  0  0  0  0  0  0  0  0  0
    5.5716   -5.6200    0.0000 H   0  0  0  0  0  0  0  0  0  0  0  0
    8.2353    6.8100    0.0000 H   0  0  0  0  0  0  0  0  0  0  0  0
    7.6984    5.8800    0.0000 H   0  0  0  0  0  0  0  0  0  0  0  0
    9.9674    6.8100    0.0000 H   0  0  0  0  0  0  0  0  0  0  0  0
   10.5043    5.8800    0.0000 H   0  0  0  0  0  0  0  0  0  0  0  0
    9.2527   -4.3100    0.0000 H   0  0  0  0  0  0  0  0  0  0  0  0
    8.6327   -3.6900    0.0000 H   0  0  0  0  0  0  0  0  0  0  0  0
    8.0127   -4.3100    0.0000 H   0  0  0  0  0  0  0  0  0  0  0  0
   10.5453   -1.5051    0.0000 H   0  0  0  0  0  0  0  0  0  0  0  0
   10.5453   -2.5790    0.0000 H   0  0  0  0  0  0  0  0  0  0  0  0
    9.0454   -3.4450    0.0000 H   0  0  0  0  0  0  0  0  0  0  0  0
    8.1154   -2.9080    0.0000 H   0  0  0  0  0  0  0  0  0  0  0  0
    5.2807   -6.8100    0.0000 H   0  0  0  0  0  0  0  0  0  0  0  0
    5.9007   -7.4300    0.0000 H   0  0  0  0  0  0  0  0  0  0  0  0
    6.5207   -6.8100    0.0000 H   0  0  0  0  0  0  0  0  0  0  0  0
   17.7415   -1.5051    0.0000 H   0  0  0  0  0  0  0  0  0  0  0  0
   17.7415   -2.5790    0.0000 H   0  0  0  0  0  0  0  0  0  0  0  0
   15.3115   -2.9080    0.0000 H   0  0  0  0  0  0  0  0  0  0  0  0
   16.2415   -3.4450    0.0000 H   0  0  0  0  0  0  0  0  0  0  0  0
    3.8447   -5.7130    0.0000 H   0  0  0  0  0  0  0  0  0  0  0  0
    2.7712    6.8100    0.0000 H   0  0  0  0  0  0  0  0  0  0  0  0
    2.2343    5.8800    0.0000 H   0  0  0  0  0  0  0  0  0  0  0  0
    4.5033    6.8100    0.0000 H   0  0  0  0  0  0  0  0  0  0  0  0
    5.0402    5.8800    0.0000 H   0  0  0  0  0  0  0  0  0  0  0  0
    1.4147   -4.3100    0.0000 H   0  0  0  0  0  0  0  0  0  0  0  0
    2.2247   -5.7130    0.0000 H   0  0  0  0  0  0  0  0  0  0  0  0
    4.6893   -2.5572    0.0000 H   0  0  0  0  0  0  0  0  0  0  0  0
    1.3800   -2.5572    0.0000 H   0  0  0  0  0  0  0  0  0  0  0  0
    3.8675   -1.1082    0.0000 H   0  0  0  0  0  0  0  0  0  0  0  0
  1 12  2  0  0  0  0
  1 13  2  0  0  0  0
  1 27  1  0  0  0  0
  1 74  1  0  0  0  0
  2 42  2  0  0  0  0
  3 45  2  0  0  0  0
  4 47  2  0  0  0  0
  5 53  2  0  0  0  0
  6 57  1  0  0  0  0
  6127  1  0  0  0  0
  7 58  1  0  0  0  0
  7128  1  0  0  0  0
  8 57  2  0  0  0  0
  9 61  2  0  0  0  0
 10 66  2  0  0  0  0
 11 70  2  0  0  0  0
 14 72  2  0  0  0  0
 37 15  1  6  0  0  0
 15 45  1  0  0  0  0
 15 94  1  0  0  0  0
 38 16  1  1  0  0  0
 16 42  1  0  0  0  0
 16 95  1  0  0  0  0
 40 17  1  1  0  0  0
 17 53  1  0  0  0  0
 17102  1  0  0  0  0
 18 47  1  0  0  0  0
 49 18  1  6  0  0  0
 18104  1  0  0  0  0
 54 19  1  6  0  0  0
 19 61  1  0  0  0  0
 19118  1  0  0  0  0
 20 50  1  0  0  0  0
 20 62  2  0  0  0  0
 21 52  1  0  0  0  0
 21 65  2  0  0  0  0
 22 55  1  0  0  0  0
 22 67  2  0  0  0  0
 60 23  1  1  0  0  0
 23 66  1  0  0  0  0
 23122  1  0  0  0  0
 24 59  1  0  0  0  0
 24 73  2  0  0  0  0
 64 25  1  6  0  0  0
 25 70  1  0  0  0  0
 25130  1  0  0  0  0
 68 26  1  1  0  0  0
 26 72  1  0  0  0  0
 26135  1  0  0  0  0
 69 27  1  6  0  0  0
 27136  1  0  0  0  0
 28 62  1  0  0  0  0
 28137  1  0  0  0  0
 28138  1  0  0  0  0
 29 62  1  0  0  0  0
 29139  1  0  0  0  0
 29140  1  0  0  0  0
 30 65  1  0  0  0  0
 30144  1  0  0  0  0
 30145  1  0  0  0  0
 31 65  1  0  0  0  0
 31146  1  0  0  0  0
 31147  1  0  0  0  0
 32 67  1  0  0  0  0
 32151  1  0  0  0  0
 32152  1  0  0  0  0
 33 67  1  0  0  0  0
 33153  1  0  0  0  0
 33154  1  0  0  0  0
 34 73  1  0  0  0  0
 34156  1  0  0  0  0
 34157  1  0  0  0  0
 35 73  1  0  0  0  0
 35158  1  0  0  0  0
 35159  1  0  0  0  0
 36 83  2  0  0  0  0
 36 84  1  0  0  0  0
 37 39  1  0  0  0  0
 37 42  1  0  0  0  0
 37 85  1  0  0  0  0
 38 41  1  0  0  0  0
 38 47  1  0  0  0  0
 38 86  1  0  0  0  0
 39 44  1  0  0  0  0
 39 87  1  0  0  0  0
 39 88  1  0  0  0  0
 40 43  1  0  0  0  0
 40 45  1  0  0  0  0
 40 89  1  0  0  0  0
 41 46  1  0  0  0  0
 41 90  1  0  0  0  0
 41 91  1  0  0  0  0
 43 48  1  0  0  0  0
 43 92  1  0  0  0  0
 43 93  1  0  0  0  0
 44 50  1  0  0  0  0
 44 96  1  0  0  0  0
 44 97  1  0  0  0  0
 46 52  1  0  0  0  0
 46 98  1  0  0  0  0
 46 99  1  0  0  0  0
 48 55  1  0  0  0  0
 48100  1  0  0  0  0
 48101  1  0  0  0  0
 49 51  1  0  0  0  0
 49 57  1  0  0  0  0
 49103  1  0  0  0  0
 50105  1  0  0  0  0
 50106  1  0  0  0  0
 51 56  1  0  0  0  0
 51107  1  0  0  0  0
 51108  1  0  0  0  0
 52109  1  0  0  0  0
 52110  1  0  0  0  0
 53 54  1  0  0  0  0
 54 58  1  0  0  0  0
 54111  1  0  0  0  0
 55112  1  0  0  0  0
 55113  1  0  0  0  0
 56 59  1  0  0  0  0
 56114  1  0  0  0  0
 56115  1  0  0  0  0
 58116  1  0  0  0  0
 58117  1  0  0  0  0
 59119  1  0  0  0  0
 59120  1  0  0  0  0
 60 61  1  0  0  0  0
 60 63  1  0  0  0  0
 60121  1  0  0  0  0
 63123  1  0  0  0  0
 63124  1  0  0  0  0
 63125  1  0  0  0  0
 64 66  1  0  0  0  0
 64 71  1  0  0  0  0
 64126  1  0  0  0  0
 68 70  1  0  0  0  0
 68 75  1  0  0  0  0
 68129  1  0  0  0  0
 69 72  1  0  0  0  0
 69 76  1  0  0  0  0
 69131  1  0  0  0  0
 71132  1  0  0  0  0
 71133  1  0  0  0  0
 71134  1  0  0  0  0
 74 77  1  0  0  0  0
 74 79  2  0  0  0  0
 75141  1  0  0  0  0
 75142  1  0  0  0  0
 75143  1  0  0  0  0
 76148  1  0  0  0  0
 76149  1  0  0  0  0
 76150  1  0  0  0  0
 77 78  2  0  0  0  0
 77 82  1  0  0  0  0
 78 80  1  0  0  0  0
 78 83  1  0  0  0  0
 79 81  1  0  0  0  0
 79155  1  0  0  0  0
 80 81  2  0  0  0  0
 80160  1  0  0  0  0
 81161  1  0  0  0  0
 82 84  2  0  0  0  0
 82162  1  0  0  0  0
 83163  1  0  0  0  0
 84164  1  0  0  0  0
M  END
> <PUBCHEM_COMPOUND_CID>
44378580

> <PUBCHEM_COMPOUND_CANONICALIZED>
1

> <PUBCHEM_CACTVS_COMPLEXITY>
2460

> <PUBCHEM_CACTVS_HBOND_ACCEPTOR>
19

> <PUBCHEM_CACTVS_HBOND_DONOR>
19

> <PUBCHEM_CACTVS_ROTATABLE_BOND>
37

> <PUBCHEM_CACTVS_SUBSKEYS>
AAADcfB//ABAAAAAAAAAAAAAAAAAAAAAAAA8QAAAAAAAAACx8AAAHgQQSAAADCjh2gY/idLIEgKoAjH3fHDCgDExAiAI2Lm4ZJgKcPbAkbGUYAhmtgDYyAeYkYAOgAAAgAAUAAAAAAEAACgAAAAAAAAAAA==

> <PUBCHEM_IUPAC_OPENEYE_NAME>
(2S)-5-guanidino-2-[[(2S)-5-guanidino-2-[[(2S)-5-guanidino-2-[[(2S)-5-guanidino-2-[[(2S)-3-hydroxy-2-[[(2S)-2-[[(2S)-2-[[(2S)-2-[[(2S)-2-(5-isoquinolylsulfonylamino)propanoyl]amino]propanoyl]amino]propanoyl]amino]propanoyl]amino]propanoyl]amino]pentanoyl]amino]pentanoyl]amino]pentanoyl]amino]pentanoic acid

> <PUBCHEM_IUPAC_CAS_NAME>
(2S)-5-(diaminomethylideneamino)-2-[[(2S)-5-(diaminomethylideneamino)-2-[[(2S)-5-(diaminomethylideneamino)-2-[[(2S)-5-(diaminomethylideneamino)-2-[[(2S)-3-hydroxy-2-[[(2S)-2-[[(2S)-2-[[(2S)-2-[[(2S)-2-(5-isoquinolinylsulfonylamino)-1-oxopropyl]amino]-1-oxopropyl]amino]-1-oxopropyl]amino]-1-oxopropyl]amino]-1-oxopropyl]amino]-1-oxopentyl]amino]-1-oxopentyl]amino]-1-oxopentyl]amino]pentanoic acid

> <PUBCHEM_IUPAC_NAME_MARKUP>
(2<I>S</I>)-5-(diaminomethylideneamino)-2-[[(2<I>S</I>)-5-(diaminomethylideneamino)-2-[[(2<I>S</I>)-5-(diaminomethylideneamino)-2-[[(2<I>S</I>)-5-(diaminomethylideneamino)-2-[[(2<I>S</I>)-3-hydroxy-2-[[(2<I>S</I>)-2-[[(2<I>S</I>)-2-[[(2<I>S</I>)-2-[[(2<I>S</I>)-2-(isoquinolin-5-ylsulfonylamino)propanoyl]amino]propanoyl]amino]propanoyl]amino]propanoyl]amino]propanoyl]amino]pentanoyl]amino]pentanoyl]amino]pentanoyl]amino]pentanoic acid

> <PUBCHEM_IUPAC_NAME>
(2S)-5-(diaminomethylideneamino)-2-[[(2S)-5-(diaminomethylideneamino)-2-[[(2S)-5-(diaminomethylideneamino)-2-[[(2S)-5-(diaminomethylideneamino)-2-[[(2S)-3-hydroxy-2-[[(2S)-2-[[(2S)-2-[[(2S)-2-[[(2S)-2-(isoquinolin-5-ylsulfonylamino)propanoyl]amino]propanoyl]amino]propanoyl]amino]propanoyl]amino]propanoyl]amino]pentanoyl]amino]pentanoyl]amino]pentanoyl]amino]pentanoic acid

> <PUBCHEM_IUPAC_SYSTEMATIC_NAME>
(2S)-5-[bis(azanyl)methylideneamino]-2-[[(2S)-5-[bis(azanyl)methylideneamino]-2-[[(2S)-5-[bis(azanyl)methylideneamino]-2-[[(2S)-5-[bis(azanyl)methylideneamino]-2-[[(2S)-2-[[(2S)-2-[[(2S)-2-[[(2S)-2-[[(2S)-2-(isoquinolin-5-ylsulfonylamino)propanoyl]amino]propanoyl]amino]propanoyl]amino]propanoyl]amino]-3-oxidanyl-propanoyl]amino]pentanoyl]amino]pentanoyl]amino]pentanoyl]amino]pentanoic acid

> <PUBCHEM_IUPAC_TRADITIONAL_NAME>
(2S)-5-guanidino-2-[[(2S)-5-guanidino-2-[[(2S)-5-guanidino-2-[[(2S)-5-guanidino-2-[[(2S)-3-hydroxy-2-[[(2S)-2-[[(2S)-2-[[(2S)-2-[[(2S)-2-(5-isoquinolylsulfonylamino)propanoyl]amino]propanoyl]amino]propanoyl]amino]propanoyl]amino]propanoyl]amino]pentanoyl]amino]pentanoyl]amino]pentanoyl]amino]valeric acid

> <PUBCHEM_IUPAC_INCHI>
InChI=1S/C48H80N22O13S/c1-24(62-37(73)25(2)64-39(75)27(4)70-84(82,83)35-15-5-10-28-22-57-21-16-29(28)35)36(72)63-26(3)38(74)69-34(23-71)43(79)67-31(12-7-18-59-46(51)52)41(77)65-30(11-6-17-58-45(49)50)40(76)66-32(13-8-19-60-47(53)54)42(78)68-33(44(80)81)14-9-20-61-48(55)56/h5,10,15-16,21-22,24-27,30-34,70-71H,6-9,11-14,17-20,23H2,1-4H3,(H,62,73)(H,63,72)(H,64,75)(H,65,77)(H,66,76)(H,67,79)(H,68,78)(H,69,74)(H,80,81)(H4,49,50,58)(H4,51,52,59)(H4,53,54,60)(H4,55,56,61)/t24-,25-,26-,27-,30-,31-,32-,33-,34-/m0/s1

> <PUBCHEM_IUPAC_INCHIKEY>
YWPNIOSLIKFMAB-LLFYXWHPSA-N

> <PUBCHEM_XLOGP3_AA>
-6.8

> <PUBCHEM_EXACT_MASS>
1204.59959187

> <PUBCHEM_MOLECULAR_FORMULA>
C48H80N22O13S

> <PUBCHEM_MOLECULAR_WEIGHT>
1205.4

> <PUBCHEM_SMILES>
C[C@@H](C(=O)N[C@@H](C)C(=O)N[C@@H](CO)C(=O)N[C@@H](CCCN=C(N)N)C(=O)N[C@@H](CCCN=C(N)N)C(=O)N[C@@H](CCCN=C(N)N)C(=O)N[C@@H](CCCN=C(N)N)C(=O)O)NC(=O)[C@H](C)NC(=O)[C@H](C)NS(=O)(=O)C1=CC=CC2=C1C=CN=C2

> <PUBCHEM_OPENEYE_CAN_SMILES>
CC(C(=O)NC(C)C(=O)NC(CO)C(=O)NC(CCCN=C(N)N)C(=O)NC(CCCN=C(N)N)C(=O)NC(CCCN=C(N)N)C(=O)NC(CCCN=C(N)N)C(=O)O)NC(=O)C(C)NC(=O)C(C)NS(=O)(=O)C1=CC=CC2=C1C=CN=C2

> <PUBCHEM_OPENEYE_ISO_SMILES>
C[C@@H](C(=O)N[C@@H](C)C(=O)N[C@@H](CO)C(=O)N[C@@H](CCCN=C(N)N)C(=O)N[C@@H](CCCN=C(N)N)C(=O)N[C@@H](CCCN=C(N)N)C(=O)N[C@@H](CCCN=C(N)N)C(=O)O)NC(=O)[C@H](C)NC(=O)[C@H](C)NS(=O)(=O)C1=CC=CC2=C1C=CN=C2

> <PUBCHEM_CACTVS_TPSA>
615

> <PUBCHEM_MONOISOTOPIC_WEIGHT>
1204.59959187

> <PUBCHEM_TOTAL_CHARGE>
0

> <PUBCHEM_HEAVY_ATOM_COUNT>
84

> <PUBCHEM_ATOM_DEF_STEREO_COUNT>
9

> <PUBCHEM_ATOM_UDEF_STEREO_COUNT>
0

> <PUBCHEM_BOND_DEF_STEREO_COUNT>
0

> <PUBCHEM_BOND_UDEF_STEREO_COUNT>
0

> <PUBCHEM_ISOTOPIC_ATOM_COUNT>
0

> <PUBCHEM_COMPONENT_COUNT>
1

> <PUBCHEM_CACTVS_TAUTO_COUNT>
-1

> <PUBCHEM_COORDINATE_TYPE>
1
5
255

> <PUBCHEM_BONDANNOTATIONS>
37  15  6
38  16  5
40  17  5
49  18  6
54  19  6
60  23  5
64  25  6
68  26  5
69  27  6
36  83  8
36  84  8
74  77  8
74  79  8
77  78  8
77  82  8
78  80  8
78  83  8
79  81  8
80  81  8
82  84  8

$$$$
