71553154
  -OEChem-03202504552D

 57 60  0     0  0  0  0  0  0999 V2000
    8.7788   -4.5000    0.0000 Cl  0  0  0  0  0  0  0  0  0  0  0  0
    5.3147   -4.5000    0.0000 Cl  0  0  0  0  0  0  0  0  0  0  0  0
    2.6691    0.0933    0.0000 O   0  0  0  0  0  0  0  0  0  0  0  0
    8.7788    3.5000    0.0000 N   0  0  0  0  0  0  0  0  0  0  0  0
    5.3147    1.5000    0.0000 N   0  0  0  0  0  0  0  0  0  0  0  0
    6.1808    0.0000    0.0000 N   0  0  0  0  0  0  0  0  0  0  0  0
    5.3147   -1.5000    0.0000 N   0  0  0  0  0  0  0  0  0  0  0  0
    7.0468   -1.5000    0.0000 N   0  0  0  0  0  0  0  0  0  0  0  0
    2.0000    0.8364    0.0000 N   0  0  0  0  0  0  0  0  0  0  0  0
    7.9128    3.0000    0.0000 C   0  0  0  0  0  0  0  0  0  0  0  0
    6.1808    2.0000    0.0000 C   0  0  0  0  0  0  0  0  0  0  0  0
    7.0468    3.5000    0.0000 C   0  0  0  0  0  0  0  0  0  0  0  0
    7.9128    2.0000    0.0000 C   0  0  0  0  0  0  0  0  0  0  0  0
    6.1808    3.0000    0.0000 C   0  0  0  0  0  0  0  0  0  0  0  0
    7.0468    1.5000    0.0000 C   0  0  0  0  0  0  0  0  0  0  0  0
    8.7788    4.5000    0.0000 C   0  0  0  0  0  0  0  0  0  0  0  0
    9.6448    3.0000    0.0000 C   0  0  0  0  0  0  0  0  0  0  0  0
    5.3147    0.5000    0.0000 C   0  0  0  0  0  0  0  0  0  0  0  0
    4.4487    0.0000    0.0000 C   0  0  0  0  0  0  0  0  0  0  0  0
    3.5827    0.5000    0.0000 C   0  0  0  0  0  0  0  0  0  0  0  0
    4.4487   -1.0000    0.0000 C   0  0  0  0  0  0  0  0  0  0  0  0
    6.1808   -1.0000    0.0000 C   0  0  0  0  0  0  0  0  0  0  0  0
    3.4782    1.4945    0.0000 C   0  0  0  0  0  0  0  0  0  0  0  0
    2.5000    1.7024    0.0000 C   0  0  0  0  0  0  0  0  0  0  0  0
    7.0468   -2.5000    0.0000 C   0  0  0  0  0  0  0  0  0  0  0  0
    2.0933    2.6160    0.0000 C   0  0  0  0  0  0  0  0  0  0  0  0
    6.1808   -3.0000    0.0000 C   0  0  0  0  0  0  0  0  0  0  0  0
    7.9128   -3.0000    0.0000 C   0  0  0  0  0  0  0  0  0  0  0  0
    7.9128   -4.0000    0.0000 C   0  0  0  0  0  0  0  0  0  0  0  0
    6.1808   -4.0000    0.0000 C   0  0  0  0  0  0  0  0  0  0  0  0
    7.0468   -4.5000    0.0000 C   0  0  0  0  0  0  0  0  0  0  0  0
    7.9128    3.6200    0.0000 H   0  0  0  0  0  0  0  0  0  0  0  0
    6.1808    1.3800    0.0000 H   0  0  0  0  0  0  0  0  0  0  0  0
    7.4453    3.9750    0.0000 H   0  0  0  0  0  0  0  0  0  0  0  0
    6.6482    3.9750    0.0000 H   0  0  0  0  0  0  0  0  0  0  0  0
    8.1249    1.4174    0.0000 H   0  0  0  0  0  0  0  0  0  0  0  0
    8.5234    2.1077    0.0000 H   0  0  0  0  0  0  0  0  0  0  0  0
    5.9687    3.5826    0.0000 H   0  0  0  0  0  0  0  0  0  0  0  0
    5.5702    2.8923    0.0000 H   0  0  0  0  0  0  0  0  0  0  0  0
    6.6482    1.0250    0.0000 H   0  0  0  0  0  0  0  0  0  0  0  0
    7.4453    1.0250    0.0000 H   0  0  0  0  0  0  0  0  0  0  0  0
    4.7778    1.8100    0.0000 H   0  0  0  0  0  0  0  0  0  0  0  0
    9.3988    4.5000    0.0000 H   0  0  0  0  0  0  0  0  0  0  0  0
    8.7788    5.1200    0.0000 H   0  0  0  0  0  0  0  0  0  0  0  0
    8.1588    4.5000    0.0000 H   0  0  0  0  0  0  0  0  0  0  0  0
    9.3348    2.4631    0.0000 H   0  0  0  0  0  0  0  0  0  0  0  0
   10.1818    2.6900    0.0000 H   0  0  0  0  0  0  0  0  0  0  0  0
    9.9548    3.5369    0.0000 H   0  0  0  0  0  0  0  0  0  0  0  0
    3.9118   -1.3100    0.0000 H   0  0  0  0  0  0  0  0  0  0  0  0
    3.9389    1.9094    0.0000 H   0  0  0  0  0  0  0  0  0  0  0  0
    7.5837   -1.1900    0.0000 H   0  0  0  0  0  0  0  0  0  0  0  0
    2.6597    2.8682    0.0000 H   0  0  0  0  0  0  0  0  0  0  0  0
    1.8411    3.1824    0.0000 H   0  0  0  0  0  0  0  0  0  0  0  0
    1.5269    2.3638    0.0000 H   0  0  0  0  0  0  0  0  0  0  0  0
    5.6438   -2.6900    0.0000 H   0  0  0  0  0  0  0  0  0  0  0  0
    8.4497   -2.6900    0.0000 H   0  0  0  0  0  0  0  0  0  0  0  0
    7.0468   -5.1200    0.0000 H   0  0  0  0  0  0  0  0  0  0  0  0
  1 29  1  0  0  0  0
  2 30  1  0  0  0  0
  3  9  1  0  0  0  0
  3 20  1  0  0  0  0
  4 10  1  0  0  0  0
  4 16  1  0  0  0  0
  4 17  1  0  0  0  0
  5 11  1  0  0  0  0
  5 18  1  0  0  0  0
  5 42  1  0  0  0  0
  6 18  2  0  0  0  0
  6 22  1  0  0  0  0
  7 21  1  0  0  0  0
  7 22  2  0  0  0  0
  8 22  1  0  0  0  0
  8 25  1  0  0  0  0
  8 51  1  0  0  0  0
  9 24  2  0  0  0  0
 10 12  1  0  0  0  0
 10 13  1  0  0  0  0
 10 32  1  0  0  0  0
 11 14  1  0  0  0  0
 11 15  1  0  0  0  0
 11 33  1  0  0  0  0
 12 14  1  0  0  0  0
 12 34  1  0  0  0  0
 12 35  1  0  0  0  0
 13 15  1  0  0  0  0
 13 36  1  0  0  0  0
 13 37  1  0  0  0  0
 14 38  1  0  0  0  0
 14 39  1  0  0  0  0
 15 40  1  0  0  0  0
 15 41  1  0  0  0  0
 16 43  1  0  0  0  0
 16 44  1  0  0  0  0
 16 45  1  0  0  0  0
 17 46  1  0  0  0  0
 17 47  1  0  0  0  0
 17 48  1  0  0  0  0
 18 19  1  0  0  0  0
 19 20  1  0  0  0  0
 19 21  2  0  0  0  0
 20 23  2  0  0  0  0
 21 49  1  0  0  0  0
 23 24  1  0  0  0  0
 23 50  1  0  0  0  0
 24 26  1  0  0  0  0
 25 27  2  0  0  0  0
 25 28  1  0  0  0  0
 26 52  1  0  0  0  0
 26 53  1  0  0  0  0
 26 54  1  0  0  0  0
 27 30  1  0  0  0  0
 27 55  1  0  0  0  0
 28 29  2  0  0  0  0
 28 56  1  0  0  0  0
 29 31  1  0  0  0  0
 30 31  2  0  0  0  0
 31 57  1  0  0  0  0
M  END
> <PUBCHEM_COMPOUND_CID>
71553154

> <PUBCHEM_COMPOUND_CANONICALIZED>
1

> <PUBCHEM_CACTVS_COMPLEXITY>
554

> <PUBCHEM_CACTVS_HBOND_ACCEPTOR>
7

> <PUBCHEM_CACTVS_HBOND_DONOR>
2

> <PUBCHEM_CACTVS_ROTATABLE_BOND>
6

> <PUBCHEM_CACTVS_SUBSKEYS>
AAADceB7oAAGAAAAAAAAAAAAAAAAAWAAAAA8YIAAAAAAAAAB8AAAHgIUAAAADC7BniQ/9JfYEACpA7Z3ZgCCgCk1J6Ah2KE+btqILrrB29OENYhukBrIyecQAAAMAAAAAAKAAAAAAQAABQAAAAAAAAAAAA==

> <PUBCHEM_IUPAC_OPENEYE_NAME>
N2-(3,5-dichlorophenyl)-N4-[4-(dimethylamino)cyclohexyl]-5-(3-methylisoxazol-5-yl)pyrimidine-2,4-diamine

> <PUBCHEM_IUPAC_CAS_NAME>
N2-(3,5-dichlorophenyl)-N4-[4-(dimethylamino)cyclohexyl]-5-(3-methyl-5-isoxazolyl)pyrimidine-2,4-diamine

> <PUBCHEM_IUPAC_NAME_MARKUP>
2-<I>N</I>-(3,5-dichlorophenyl)-4-<I>N</I>-[4-(dimethylamino)cyclohexyl]-5-(3-methyl-1,2-oxazol-5-yl)pyrimidine-2,4-diamine

> <PUBCHEM_IUPAC_NAME>
2-N-(3,5-dichlorophenyl)-4-N-[4-(dimethylamino)cyclohexyl]-5-(3-methyl-1,2-oxazol-5-yl)pyrimidine-2,4-diamine

> <PUBCHEM_IUPAC_SYSTEMATIC_NAME>
N2-[3,5-bis(chloranyl)phenyl]-N4-[4-(dimethylamino)cyclohexyl]-5-(3-methyl-1,2-oxazol-5-yl)pyrimidine-2,4-diamine

> <PUBCHEM_IUPAC_TRADITIONAL_NAME>
[4-[[2-(3,5-dichloroanilino)-5-(3-methylisoxazol-5-yl)pyrimidin-4-yl]amino]cyclohexyl]-dimethyl-amine

> <PUBCHEM_IUPAC_INCHI>
InChI=1S/C22H26Cl2N6O/c1-13-8-20(31-29-13)19-12-25-22(27-17-10-14(23)9-15(24)11-17)28-21(19)26-16-4-6-18(7-5-16)30(2)3/h8-12,16,18H,4-7H2,1-3H3,(H2,25,26,27,28)

> <PUBCHEM_IUPAC_INCHIKEY>
ZTSOUDMNSOYCTG-UHFFFAOYSA-N

> <PUBCHEM_XLOGP3_AA>
5.5

> <PUBCHEM_EXACT_MASS>
460.1545149

> <PUBCHEM_MOLECULAR_FORMULA>
C22H26Cl2N6O

> <PUBCHEM_MOLECULAR_WEIGHT>
461.4

> <PUBCHEM_SMILES>
CC1=NOC(=C1)C2=CN=C(N=C2NC3CCC(CC3)N(C)C)NC4=CC(=CC(=C4)Cl)Cl

> <PUBCHEM_OPENEYE_CAN_SMILES>
CC1=NOC(=C1)C2=CN=C(N=C2NC3CCC(CC3)N(C)C)NC4=CC(=CC(=C4)Cl)Cl

> <PUBCHEM_OPENEYE_ISO_SMILES>
CC1=NOC(=C1)C2=CN=C(N=C2NC3CCC(CC3)N(C)C)NC4=CC(=CC(=C4)Cl)Cl

> <PUBCHEM_CACTVS_TPSA>
79.1

> <PUBCHEM_MONOISOTOPIC_WEIGHT>
460.1545149

> <PUBCHEM_TOTAL_CHARGE>
0

> <PUBCHEM_HEAVY_ATOM_COUNT>
31

> <PUBCHEM_ATOM_DEF_STEREO_COUNT>
0

> <PUBCHEM_ATOM_UDEF_STEREO_COUNT>
0

> <PUBCHEM_BOND_DEF_STEREO_COUNT>
0

> <PUBCHEM_BOND_UDEF_STEREO_COUNT>
0

> <PUBCHEM_ISOTOPIC_ATOM_COUNT>
0

> <PUBCHEM_COMPONENT_COUNT>
1

> <PUBCHEM_CACTVS_TAUTO_COUNT>
-1

> <PUBCHEM_COORDINATE_TYPE>
1
5
255

> <PUBCHEM_BONDANNOTATIONS>
18  19  8
19  21  8
20  23  8
23  24  8
25  27  8
25  28  8
27  30  8
28  29  8
29  31  8
3  20  8
3  9  8
30  31  8
6  18  8
6  22  8
7  21  8
7  22  8
9  24  8

$$$$
