10206423
  -OEChem-03202505392D

 62 67  0     0  0  0  0  0  0999 V2000
   10.2608   -0.8923    0.0000 O   0  0  0  0  0  0  0  0  0  0  0  0
    7.3756    2.4613    0.0000 O   0  0  0  0  0  0  0  0  0  0  0  0
    6.0889   -2.7506    0.0000 O   0  0  0  0  0  0  0  0  0  0  0  0
    3.1531   -1.3407    0.0000 O   0  0  0  0  0  0  0  0  0  0  0  0
    9.4004    1.1464    0.0000 O   0  0  0  0  0  0  0  0  0  0  0  0
    8.1237    0.1870    0.0000 N   0  0  0  0  0  0  0  0  0  0  0  0
    5.0274    1.9837    0.0000 N   0  0  0  0  0  0  0  0  0  0  0  0
    4.7381   -2.1427    0.0000 N   0  0  0  0  0  0  0  0  0  0  0  0
    3.3424    2.7685    0.0000 N   0  0  0  0  0  0  0  0  0  0  0  0
    6.4295   -0.1732    0.0000 C   0  0  0  0  0  0  0  0  0  0  0  0
    5.6863   -0.8423    0.0000 C   0  0  0  0  0  0  0  0  0  0  0  0
    4.7353   -0.5333    0.0000 C   0  0  0  0  0  0  0  0  0  0  0  0
    4.5274    0.4449    0.0000 C   0  0  0  0  0  0  0  0  0  0  0  0
    6.9813   -1.0056    0.0000 C   0  0  0  0  0  0  0  0  0  0  0  0
    7.9582   -0.7980    0.0000 C   0  0  0  0  0  0  0  0  0  0  0  0
    7.3805   -0.4822    0.0000 C   0  0  0  0  0  0  0  0  0  0  0  0
    3.7183    1.0327    0.0000 C   0  0  0  0  0  0  0  0  0  0  0  0
    4.0274    1.9837    0.0000 C   0  0  0  0  0  0  0  0  0  0  0  0
    9.0747   -0.1221    0.0000 C   0  0  0  0  0  0  0  0  0  0  0  0
    5.3364    1.0327    0.0000 C   0  0  0  0  0  0  0  0  0  0  0  0
    5.7705    2.6529    0.0000 C   0  0  0  0  0  0  0  0  0  0  0  0
    5.6838   -1.8364    0.0000 C   0  0  0  0  0  0  0  0  0  0  0  0
    4.1531   -1.3390    0.0000 C   0  0  0  0  0  0  0  0  0  0  0  0
    6.6446   -1.9900    0.0000 C   0  0  0  0  0  0  0  0  0  0  0  0
    8.6662   -1.5603    0.0000 C   0  0  0  0  0  0  0  0  0  0  0  0
    9.2826   -1.1002    0.0000 C   0  0  0  0  0  0  0  0  0  0  0  0
    2.7029    0.8004    0.0000 C   0  0  0  0  0  0  0  0  0  0  0  0
    6.4846    2.0073    0.0000 C   0  0  0  0  0  0  0  0  0  0  0  0
    7.3347   -2.7685    0.0000 C   0  0  0  0  0  0  0  0  0  0  0  0
    8.3523   -2.5522    0.0000 C   0  0  0  0  0  0  0  0  0  0  0  0
    2.0000    1.5691    0.0000 C   0  0  0  0  0  0  0  0  0  0  0  0
    2.3219    2.5598    0.0000 C   0  0  0  0  0  0  0  0  0  0  0  0
   10.8054   -0.0536    0.0000 C   0  0  0  0  0  0  0  0  0  0  0  0
    8.2143    1.9166    0.0000 C   0  0  0  0  0  0  0  0  0  0  0  0
   10.3514    0.8374    0.0000 C   0  0  0  0  0  0  0  0  0  0  0  0
    9.1925    2.1246    0.0000 C   0  0  0  0  0  0  0  0  0  0  0  0
    7.5094   -1.0886    0.0000 H   0  0  0  0  0  0  0  0  0  0  0  0
    9.6944   -0.1004    0.0000 H   0  0  0  0  0  0  0  0  0  0  0  0
    9.1610    0.4919    0.0000 H   0  0  0  0  0  0  0  0  0  0  0  0
    5.9260    0.8411    0.0000 H   0  0  0  0  0  0  0  0  0  0  0  0
    6.2018    3.0983    0.0000 H   0  0  0  0  0  0  0  0  0  0  0  0
    5.3401    3.0991    0.0000 H   0  0  0  0  0  0  0  0  0  0  0  0
    6.0367   -2.1119    0.0000 H   0  0  0  0  0  0  0  0  0  0  0  0
    9.2711   -1.4244    0.0000 H   0  0  0  0  0  0  0  0  0  0  0  0
    4.5465   -2.7324    0.0000 H   0  0  0  0  0  0  0  0  0  0  0  0
    8.6762   -1.2291    0.0000 H   0  0  0  0  0  0  0  0  0  0  0  0
    9.4116   -1.7066    0.0000 H   0  0  0  0  0  0  0  0  0  0  0  0
    2.5182    0.2086    0.0000 H   0  0  0  0  0  0  0  0  0  0  0  0
    6.0162    1.6012    0.0000 H   0  0  0  0  0  0  0  0  0  0  0  0
    6.8310    1.4931    0.0000 H   0  0  0  0  0  0  0  0  0  0  0  0
    7.1408   -3.3574    0.0000 H   0  0  0  0  0  0  0  0  0  0  0  0
    8.7689   -3.0113    0.0000 H   0  0  0  0  0  0  0  0  0  0  0  0
    1.3940    1.4379    0.0000 H   0  0  0  0  0  0  0  0  0  0  0  0
    1.9088    3.0221    0.0000 H   0  0  0  0  0  0  0  0  0  0  0  0
   11.2589   -0.4765    0.0000 H   0  0  0  0  0  0  0  0  0  0  0  0
   11.3006    0.3195    0.0000 H   0  0  0  0  0  0  0  0  0  0  0  0
    7.7536    1.5018    0.0000 H   0  0  0  0  0  0  0  0  0  0  0  0
    8.4958    1.3642    0.0000 H   0  0  0  0  0  0  0  0  0  0  0  0
   10.9579    0.9663    0.0000 H   0  0  0  0  0  0  0  0  0  0  0  0
   10.3839    1.4565    0.0000 H   0  0  0  0  0  0  0  0  0  0  0  0
    9.7989    2.2535    0.0000 H   0  0  0  0  0  0  0  0  0  0  0  0
    9.0636    2.7310    0.0000 H   0  0  0  0  0  0  0  0  0  0  0  0
  1 26  1  0  0  0  0
  1 33  1  0  0  0  0
  2 28  1  0  0  0  0
  2 34  1  0  0  0  0
  3 22  2  0  0  0  0
  4 23  2  0  0  0  0
  5 35  1  0  0  0  0
  5 36  1  0  0  0  0
  6 15  1  0  0  0  0
  6 16  1  0  0  0  0
  6 19  1  0  0  0  0
  7 18  1  0  0  0  0
  7 20  1  0  0  0  0
  7 21  1  0  0  0  0
  8 22  1  0  0  0  0
  8 23  1  0  0  0  0
  8 45  1  0  0  0  0
  9 18  1  0  0  0  0
  9 32  2  0  0  0  0
 10 11  1  0  0  0  0
 10 14  1  0  0  0  0
 10 16  2  0  0  0  0
 11 12  2  0  0  0  0
 11 22  1  0  0  0  0
 12 13  1  0  0  0  0
 12 23  1  0  0  0  0
 13 17  1  0  0  0  0
 13 20  2  0  0  0  0
 14 15  1  0  0  0  0
 14 24  2  0  0  0  0
 15 25  2  0  0  0  0
 16 37  1  0  0  0  0
 17 18  2  0  0  0  0
 17 27  1  0  0  0  0
 19 26  1  0  0  0  0
 19 38  1  0  0  0  0
 19 39  1  0  0  0  0
 20 40  1  0  0  0  0
 21 28  1  0  0  0  0
 21 41  1  0  0  0  0
 21 42  1  0  0  0  0
 24 29  1  0  0  0  0
 24 43  1  0  0  0  0
 25 30  1  0  0  0  0
 25 44  1  0  0  0  0
 26 46  1  0  0  0  0
 26 47  1  0  0  0  0
 27 31  2  0  0  0  0
 27 48  1  0  0  0  0
 28 49  1  0  0  0  0
 28 50  1  0  0  0  0
 29 30  2  0  0  0  0
 29 51  1  0  0  0  0
 30 52  1  0  0  0  0
 31 32  1  0  0  0  0
 31 53  1  0  0  0  0
 32 54  1  0  0  0  0
 33 35  1  0  0  0  0
 33 55  1  0  0  0  0
 33 56  1  0  0  0  0
 34 36  1  0  0  0  0
 34 57  1  0  0  0  0
 34 58  1  0  0  0  0
 35 59  1  0  0  0  0
 35 60  1  0  0  0  0
 36 61  1  0  0  0  0
 36 62  1  0  0  0  0
M  END
> <PUBCHEM_COMPOUND_CID>
10206423

> <PUBCHEM_COMPOUND_CANONICALIZED>
1

> <PUBCHEM_CACTVS_COMPLEXITY>
865

> <PUBCHEM_CACTVS_HBOND_ACCEPTOR>
6

> <PUBCHEM_CACTVS_HBOND_DONOR>
1

> <PUBCHEM_CACTVS_ROTATABLE_BOND>
0

> <PUBCHEM_CACTVS_SUBSKEYS>
AAADceB7uAAAAAAAAAAAAAAAAAAAAWLEAAA8QAAAAAAAAFgB/gAAHgAQAAAADAjhnwY98P/MFACoAzd3dACCgCkxAqAJ2CE4ZNiLKPLAnZGHIAhohCLaySccicCegAAAAAACAAAAAAAAAAQAAAAAAAAAAA==

> <PUBCHEM_IUPAC_OPENEYE_NAME>
17,20,23-trioxa-4,12,14,26-tetrazahexacyclo[24.6.1.17,14.02,6.08,13.027,32]tetratriaconta-1(33),2(6),7(34),8(13),9,11,27,29,31-nonaene-3,5-dione

> <PUBCHEM_IUPAC_CAS_NAME>
17,20,23-trioxa-4,12,14,26-tetrazahexacyclo[24.6.1.17,14.02,6.08,13.027,32]tetratriaconta-1(33),2(6),7(34),8(13),9,11,27,29,31-nonaene-3,5-dione

> <PUBCHEM_IUPAC_NAME_MARKUP>
17,20,23-trioxa-4,12,14,26-tetrazahexacyclo[24.6.1.1<SUP>7,14</SUP>.0<SUP>2,6</SUP>.0<SUP>8,13</SUP>.0<SUP>27,32</SUP>]tetratriaconta-1(33),2(6),7(34),8(13),9,11,27,29,31-nonaene-3,5-dione

> <PUBCHEM_IUPAC_NAME>
17,20,23-trioxa-4,12,14,26-tetrazahexacyclo[24.6.1.17,14.02,6.08,13.027,32]tetratriaconta-1(33),2(6),7(34),8(13),9,11,27,29,31-nonaene-3,5-dione

> <PUBCHEM_IUPAC_SYSTEMATIC_NAME>
17,20,23-trioxa-4,12,14,26-tetrazahexacyclo[24.6.1.17,14.02,6.08,13.027,32]tetratriaconta-1(33),2(6),7(34),8(13),9,11,27,29,31-nonaene-3,5-dione

> <PUBCHEM_IUPAC_TRADITIONAL_NAME>
17,20,23-trioxa-4,12,14,26-tetrazahexacyclo[24.6.1.17,14.02,6.08,13.027,32]tetratriaconta-1(33),2(6),7(34),8(13),9,11,27,29,31-nonaene-3,5-quinone

> <PUBCHEM_IUPAC_INCHI>
InChI=1S/C27H26N4O5/c32-26-23-20-16-30(22-6-2-1-4-18(20)22)8-10-34-12-14-36-15-13-35-11-9-31-17-21(24(23)27(33)29-26)19-5-3-7-28-25(19)31/h1-7,16-17H,8-15H2,(H,29,32,33)

> <PUBCHEM_IUPAC_INCHIKEY>
SYLBCDWZFLYHIX-UHFFFAOYSA-N

> <PUBCHEM_XLOGP3_AA>
1.2

> <PUBCHEM_EXACT_MASS>
486.19031994

> <PUBCHEM_MOLECULAR_FORMULA>
C27H26N4O5

> <PUBCHEM_MOLECULAR_WEIGHT>
486.5

> <PUBCHEM_SMILES>
C1COCCOCCOCCN2C=C(C3=C2N=CC=C3)C4=C(C5=CN1C6=CC=CC=C65)C(=O)NC4=O

> <PUBCHEM_OPENEYE_CAN_SMILES>
C1COCCOCCOCCN2C=C(C3=C2N=CC=C3)C4=C(C5=CN1C6=CC=CC=C65)C(=O)NC4=O

> <PUBCHEM_OPENEYE_ISO_SMILES>
C1COCCOCCOCCN2C=C(C3=C2N=CC=C3)C4=C(C5=CN1C6=CC=CC=C65)C(=O)NC4=O

> <PUBCHEM_CACTVS_TPSA>
96.6

> <PUBCHEM_MONOISOTOPIC_WEIGHT>
486.19031994

> <PUBCHEM_TOTAL_CHARGE>
0

> <PUBCHEM_HEAVY_ATOM_COUNT>
36

> <PUBCHEM_ATOM_DEF_STEREO_COUNT>
0

> <PUBCHEM_ATOM_UDEF_STEREO_COUNT>
0

> <PUBCHEM_BOND_DEF_STEREO_COUNT>
0

> <PUBCHEM_BOND_UDEF_STEREO_COUNT>
0

> <PUBCHEM_ISOTOPIC_ATOM_COUNT>
0

> <PUBCHEM_COMPONENT_COUNT>
1

> <PUBCHEM_CACTVS_TAUTO_COUNT>
-1

> <PUBCHEM_COORDINATE_TYPE>
1
5
255

> <PUBCHEM_BONDANNOTATIONS>
10  14  8
10  16  8
13  17  8
13  20  8
14  15  8
14  24  8
15  25  8
17  18  8
17  27  8
24  29  8
25  30  8
27  31  8
29  30  8
31  32  8
6  15  8
6  16  8
7  18  8
7  20  8
9  18  8
9  32  8

$$$$
