49830932
  -OEChem-03202504242D

 42 43  0     0  0  0  0  0  0999 V2000
    2.8660    1.3450    0.0000 Cl  0  0  0  0  0  0  0  0  0  0  0  0
    9.7942   -1.6550    0.0000 S   0  0  0  0  0  0  0  0  0  0  0  0
    9.7942   -2.6550    0.0000 O   0  0  0  0  0  0  0  0  0  0  0  0
    8.7942   -1.6550    0.0000 O   0  0  0  0  0  0  0  0  0  0  0  0
    2.8660   -0.6550    0.0000 O   0  0  0  0  0  0  0  0  0  0  0  0
    6.3301   -1.6550    0.0000 O   0  0  0  0  0  0  0  0  0  0  0  0
    7.1962   -0.1550    0.0000 N   0  0  0  0  0  0  0  0  0  0  0  0
   10.7942   -1.6550    0.0000 N   0  0  0  0  0  0  0  0  0  0  0  0
    4.5981   -0.6550    0.0000 N   0  0  0  0  0  0  0  0  0  0  0  0
    4.5981    2.3450    0.0000 N   0  0  0  0  0  0  0  0  0  0  0  0
    8.9282   -0.1550    0.0000 C   0  0  0  0  0  0  0  0  0  0  0  0
    9.7942   -0.6550    0.0000 C   0  0  0  0  0  0  0  0  0  0  0  0
    8.0622   -0.6550    0.0000 C   0  0  0  0  0  0  0  0  0  0  0  0
    8.9282    0.8450    0.0000 C   0  0  0  0  0  0  0  0  0  0  0  0
   10.6603   -0.1550    0.0000 C   0  0  0  0  0  0  0  0  0  0  0  0
    9.7942    1.3450    0.0000 C   0  0  0  0  0  0  0  0  0  0  0  0
   10.6603    0.8450    0.0000 C   0  0  0  0  0  0  0  0  0  0  0  0
    6.3301   -0.6550    0.0000 C   0  0  0  0  0  0  0  0  0  0  0  0
    5.4641   -0.1550    0.0000 C   0  0  0  0  0  0  0  0  0  0  0  0
    5.4641    0.8450    0.0000 C   0  0  0  0  0  0  0  0  0  0  0  0
    4.5981    1.3450    0.0000 C   0  0  0  0  0  0  0  0  0  0  0  0
    3.7320   -0.1550    0.0000 C   0  0  0  0  0  0  0  0  0  0  0  0
    3.7320    0.8450    0.0000 C   0  0  0  0  0  0  0  0  0  0  0  0
    2.8660   -1.6550    0.0000 C   0  0  0  0  0  0  0  0  0  0  0  0
    2.0000   -2.1550    0.0000 C   0  0  0  0  0  0  0  0  0  0  0  0
    7.6636   -1.1300    0.0000 H   0  0  0  0  0  0  0  0  0  0  0  0
    8.4607   -1.1300    0.0000 H   0  0  0  0  0  0  0  0  0  0  0  0
    8.3913    1.1550    0.0000 H   0  0  0  0  0  0  0  0  0  0  0  0
   11.1972   -0.4650    0.0000 H   0  0  0  0  0  0  0  0  0  0  0  0
    7.1962    0.4650    0.0000 H   0  0  0  0  0  0  0  0  0  0  0  0
    9.7942    1.9650    0.0000 H   0  0  0  0  0  0  0  0  0  0  0  0
   11.1972    1.1550    0.0000 H   0  0  0  0  0  0  0  0  0  0  0  0
    6.0010    1.1550    0.0000 H   0  0  0  0  0  0  0  0  0  0  0  0
   11.1042   -2.1919    0.0000 H   0  0  0  0  0  0  0  0  0  0  0  0
   11.1042   -1.1181    0.0000 H   0  0  0  0  0  0  0  0  0  0  0  0
    3.0781   -2.2376    0.0000 H   0  0  0  0  0  0  0  0  0  0  0  0
    3.4766   -1.5473    0.0000 H   0  0  0  0  0  0  0  0  0  0  0  0
    5.1350    2.6550    0.0000 H   0  0  0  0  0  0  0  0  0  0  0  0
    4.0611    2.6550    0.0000 H   0  0  0  0  0  0  0  0  0  0  0  0
    1.6900   -1.6181    0.0000 H   0  0  0  0  0  0  0  0  0  0  0  0
    1.4631   -2.4650    0.0000 H   0  0  0  0  0  0  0  0  0  0  0  0
    2.3100   -2.6919    0.0000 H   0  0  0  0  0  0  0  0  0  0  0  0
  1 23  1  0  0  0  0
  2  3  2  0  0  0  0
  2  4  2  0  0  0  0
  2  8  1  0  0  0  0
  2 12  1  0  0  0  0
  5 22  1  0  0  0  0
  5 24  1  0  0  0  0
  6 18  2  0  0  0  0
  7 13  1  0  0  0  0
  7 18  1  0  0  0  0
  7 30  1  0  0  0  0
  8 34  1  0  0  0  0
  8 35  1  0  0  0  0
  9 19  2  0  0  0  0
  9 22  1  0  0  0  0
 10 21  1  0  0  0  0
 10 38  1  0  0  0  0
 10 39  1  0  0  0  0
 11 12  1  0  0  0  0
 11 13  1  0  0  0  0
 11 14  2  0  0  0  0
 12 15  2  0  0  0  0
 13 26  1  0  0  0  0
 13 27  1  0  0  0  0
 14 16  1  0  0  0  0
 14 28  1  0  0  0  0
 15 17  1  0  0  0  0
 15 29  1  0  0  0  0
 16 17  2  0  0  0  0
 16 31  1  0  0  0  0
 17 32  1  0  0  0  0
 18 19  1  0  0  0  0
 19 20  1  0  0  0  0
 20 21  2  0  0  0  0
 20 33  1  0  0  0  0
 21 23  1  0  0  0  0
 22 23  2  0  0  0  0
 24 25  1  0  0  0  0
 24 36  1  0  0  0  0
 24 37  1  0  0  0  0
 25 40  1  0  0  0  0
 25 41  1  0  0  0  0
 25 42  1  0  0  0  0
M  END
> <PUBCHEM_COMPOUND_CID>
49830932

> <PUBCHEM_COMPOUND_CANONICALIZED>
1

> <PUBCHEM_CACTVS_COMPLEXITY>
556

> <PUBCHEM_CACTVS_HBOND_ACCEPTOR>
7

> <PUBCHEM_CACTVS_HBOND_DONOR>
3

> <PUBCHEM_CACTVS_ROTATABLE_BOND>
6

> <PUBCHEM_CACTVS_SUBSKEYS>
AAADceBzuABEAAAAAAAAAAAAAAAAAAAAAAA8QAAAAAAAAAABwAAAHgYQQAAADArh3iYyxZLIFAKoAyVyVHDCiDAnJmAImLm8b9gMZnPF9/vePSjm1hnI6Yec2AEOAAAAAAAEAAAAAAAAAAgAAAAAAAAAAA==

> <PUBCHEM_IUPAC_OPENEYE_NAME>
4-amino-5-chloro-6-ethoxy-N-[(2-sulfamoylphenyl)methyl]pyridine-2-carboxamide

> <PUBCHEM_IUPAC_CAS_NAME>
4-amino-5-chloro-6-ethoxy-N-[(2-sulfamoylphenyl)methyl]-2-pyridinecarboxamide

> <PUBCHEM_IUPAC_NAME_MARKUP>
4-amino-5-chloro-6-ethoxy-<I>N</I>-[(2-sulfamoylphenyl)methyl]pyridine-2-carboxamide

> <PUBCHEM_IUPAC_NAME>
4-amino-5-chloro-6-ethoxy-N-[(2-sulfamoylphenyl)methyl]pyridine-2-carboxamide

> <PUBCHEM_IUPAC_SYSTEMATIC_NAME>
4-azanyl-5-chloranyl-6-ethoxy-N-[(2-sulfamoylphenyl)methyl]pyridine-2-carboxamide

> <PUBCHEM_IUPAC_TRADITIONAL_NAME>
4-amino-5-chloro-6-ethoxy-N-(2-sulfamoylbenzyl)picolinamide

> <PUBCHEM_IUPAC_INCHI>
InChI=1S/C15H17ClN4O4S/c1-2-24-15-13(16)10(17)7-11(20-15)14(21)19-8-9-5-3-4-6-12(9)25(18,22)23/h3-7H,2,8H2,1H3,(H2,17,20)(H,19,21)(H2,18,22,23)

> <PUBCHEM_IUPAC_INCHIKEY>
XFRGIDBALWLGDZ-UHFFFAOYSA-N

> <PUBCHEM_XLOGP3_AA>
1.1

> <PUBCHEM_EXACT_MASS>
384.0659039

> <PUBCHEM_MOLECULAR_FORMULA>
C15H17ClN4O4S

> <PUBCHEM_MOLECULAR_WEIGHT>
384.8

> <PUBCHEM_SMILES>
CCOC1=C(C(=CC(=N1)C(=O)NCC2=CC=CC=C2S(=O)(=O)N)N)Cl

> <PUBCHEM_OPENEYE_CAN_SMILES>
CCOC1=C(C(=CC(=N1)C(=O)NCC2=CC=CC=C2S(=O)(=O)N)N)Cl

> <PUBCHEM_OPENEYE_ISO_SMILES>
CCOC1=C(C(=CC(=N1)C(=O)NCC2=CC=CC=C2S(=O)(=O)N)N)Cl

> <PUBCHEM_CACTVS_TPSA>
146

> <PUBCHEM_MONOISOTOPIC_WEIGHT>
384.0659039

> <PUBCHEM_TOTAL_CHARGE>
0

> <PUBCHEM_HEAVY_ATOM_COUNT>
25

> <PUBCHEM_ATOM_DEF_STEREO_COUNT>
0

> <PUBCHEM_ATOM_UDEF_STEREO_COUNT>
0

> <PUBCHEM_BOND_DEF_STEREO_COUNT>
0

> <PUBCHEM_BOND_UDEF_STEREO_COUNT>
0

> <PUBCHEM_ISOTOPIC_ATOM_COUNT>
0

> <PUBCHEM_COMPONENT_COUNT>
1

> <PUBCHEM_CACTVS_TAUTO_COUNT>
-1

> <PUBCHEM_COORDINATE_TYPE>
1
5
255

> <PUBCHEM_BONDANNOTATIONS>
11  12  8
11  14  8
12  15  8
14  16  8
15  17  8
16  17  8
19  20  8
20  21  8
21  23  8
22  23  8
9  19  8
9  22  8

$$$$
