24905291
  -OEChem-03192523342D

 33 35  0     0  0  0  0  0  0999 V2000
    5.9209    2.8089    0.0000 O   0  0  0  0  0  0  0  0  0  0  0  0
    7.2566    1.3203    0.0000 O   0  0  0  0  0  0  0  0  0  0  0  0
    4.6783   -2.6027    0.0000 N   0  0  0  0  0  0  0  0  0  0  0  0
    5.2619   -1.7979    0.0000 N   0  0  0  0  0  0  0  0  0  0  0  0
    2.8660   -2.7979    0.0000 N   0  0  0  0  0  0  0  0  0  0  0  0
    2.0000   -1.2979    0.0000 N   0  0  0  0  0  0  0  0  0  0  0  0
    2.8660    0.2021    0.0000 N   0  0  0  0  0  0  0  0  0  0  0  0
    3.7320   -1.2979    0.0000 C   0  0  0  0  0  0  0  0  0  0  0  0
    4.6783   -0.9932    0.0000 C   0  0  0  0  0  0  0  0  0  0  0  0
    3.7320   -2.2979    0.0000 C   0  0  0  0  0  0  0  0  0  0  0  0
    4.9889   -0.0427    0.0000 C   0  0  0  0  0  0  0  0  0  0  0  0
    2.8660   -0.7979    0.0000 C   0  0  0  0  0  0  0  0  0  0  0  0
    5.9674    0.1635    0.0000 C   0  0  0  0  0  0  0  0  0  0  0  0
    4.3211    0.7016    0.0000 C   0  0  0  0  0  0  0  0  0  0  0  0
    4.9889   -3.5532    0.0000 C   0  0  0  0  0  0  0  0  0  0  0  0
    6.2781    1.1141    0.0000 C   0  0  0  0  0  0  0  0  0  0  0  0
    4.6318    1.6521    0.0000 C   0  0  0  0  0  0  0  0  0  0  0  0
    5.6103    1.8584    0.0000 C   0  0  0  0  0  0  0  0  0  0  0  0
    2.0000   -2.2979    0.0000 C   0  0  0  0  0  0  0  0  0  0  0  0
    5.2531    3.5532    0.0000 C   0  0  0  0  0  0  0  0  0  0  0  0
    6.3815   -0.2979    0.0000 H   0  0  0  0  0  0  0  0  0  0  0  0
    3.7144    0.5738    0.0000 H   0  0  0  0  0  0  0  0  0  0  0  0
    4.3996   -3.7458    0.0000 H   0  0  0  0  0  0  0  0  0  0  0  0
    5.1815   -4.1425    0.0000 H   0  0  0  0  0  0  0  0  0  0  0  0
    5.5783   -3.3606    0.0000 H   0  0  0  0  0  0  0  0  0  0  0  0
    4.2177    2.1136    0.0000 H   0  0  0  0  0  0  0  0  0  0  0  0
    1.4631   -2.6079    0.0000 H   0  0  0  0  0  0  0  0  0  0  0  0
    2.3291    0.5121    0.0000 H   0  0  0  0  0  0  0  0  0  0  0  0
    3.4030    0.5121    0.0000 H   0  0  0  0  0  0  0  0  0  0  0  0
    7.6707    0.8588    0.0000 H   0  0  0  0  0  0  0  0  0  0  0  0
    5.7145    3.9672    0.0000 H   0  0  0  0  0  0  0  0  0  0  0  0
    4.8390    4.0146    0.0000 H   0  0  0  0  0  0  0  0  0  0  0  0
    4.7916    3.1391    0.0000 H   0  0  0  0  0  0  0  0  0  0  0  0
  1 18  1  0  0  0  0
  1 20  1  0  0  0  0
  2 16  1  0  0  0  0
  2 30  1  0  0  0  0
  3  4  1  0  0  0  0
  3 10  1  0  0  0  0
  3 15  1  0  0  0  0
  4  9  2  0  0  0  0
  5 10  2  0  0  0  0
  5 19  1  0  0  0  0
  6 12  1  0  0  0  0
  6 19  2  0  0  0  0
  7 12  1  0  0  0  0
  7 28  1  0  0  0  0
  7 29  1  0  0  0  0
  8  9  1  0  0  0  0
  8 10  1  0  0  0  0
  8 12  2  0  0  0  0
  9 11  1  0  0  0  0
 11 13  2  0  0  0  0
 11 14  1  0  0  0  0
 13 16  1  0  0  0  0
 13 21  1  0  0  0  0
 14 17  2  0  0  0  0
 14 22  1  0  0  0  0
 15 23  1  0  0  0  0
 15 24  1  0  0  0  0
 15 25  1  0  0  0  0
 16 18  2  0  0  0  0
 17 18  1  0  0  0  0
 17 26  1  0  0  0  0
 19 27  1  0  0  0  0
 20 31  1  0  0  0  0
 20 32  1  0  0  0  0
 20 33  1  0  0  0  0
M  END
> <PUBCHEM_COMPOUND_CID>
24905291

> <PUBCHEM_COMPOUND_CANONICALIZED>
1

> <PUBCHEM_CACTVS_COMPLEXITY>
345

> <PUBCHEM_CACTVS_HBOND_ACCEPTOR>
6

> <PUBCHEM_CACTVS_HBOND_DONOR>
2

> <PUBCHEM_CACTVS_ROTATABLE_BOND>
2

> <PUBCHEM_CACTVS_SUBSKEYS>
AAADccBzsAAAAAAAAAAAAAAAAAAAAWAAAAA8QAAAAAAAAFgB/AAAHgAYCAAADAyBnwY3tt5IFgCiAyZjZACSjCsxoKAd2CAuzJiNLqLG+duE9CtsyBNL+Cew0PEOIAABAAAAQABAAAIAAACAAAAAAAAAAA==

> <PUBCHEM_IUPAC_OPENEYE_NAME>
5-(4-amino-1-methyl-pyrazolo[3,4-d]pyrimidin-3-yl)-2-methoxy-phenol

> <PUBCHEM_IUPAC_CAS_NAME>
5-(4-amino-1-methyl-3-pyrazolo[3,4-d]pyrimidinyl)-2-methoxyphenol

> <PUBCHEM_IUPAC_NAME_MARKUP>
5-(4-amino-1-methylpyrazolo[3,4-d]pyrimidin-3-yl)-2-methoxyphenol

> <PUBCHEM_IUPAC_NAME>
5-(4-amino-1-methylpyrazolo[3,4-d]pyrimidin-3-yl)-2-methoxyphenol

> <PUBCHEM_IUPAC_SYSTEMATIC_NAME>
5-(4-azanyl-1-methyl-pyrazolo[3,4-d]pyrimidin-3-yl)-2-methoxy-phenol

> <PUBCHEM_IUPAC_TRADITIONAL_NAME>
5-(4-amino-1-methyl-pyrazolo[3,4-d]pyrimidin-3-yl)-2-methoxy-phenol

> <PUBCHEM_IUPAC_INCHI>
InChI=1S/C13H13N5O2/c1-18-13-10(12(14)15-6-16-13)11(17-18)7-3-4-9(20-2)8(19)5-7/h3-6,19H,1-2H3,(H2,14,15,16)

> <PUBCHEM_IUPAC_INCHIKEY>
DINPOPQNCDTVPQ-UHFFFAOYSA-N

> <PUBCHEM_XLOGP3_AA>
1.1

> <PUBCHEM_EXACT_MASS>
271.10692467

> <PUBCHEM_MOLECULAR_FORMULA>
C13H13N5O2

> <PUBCHEM_MOLECULAR_WEIGHT>
271.27

> <PUBCHEM_SMILES>
CN1C2=NC=NC(=C2C(=N1)C3=CC(=C(C=C3)OC)O)N

> <PUBCHEM_OPENEYE_CAN_SMILES>
CN1C2=NC=NC(=C2C(=N1)C3=CC(=C(C=C3)OC)O)N

> <PUBCHEM_OPENEYE_ISO_SMILES>
CN1C2=NC=NC(=C2C(=N1)C3=CC(=C(C=C3)OC)O)N

> <PUBCHEM_CACTVS_TPSA>
99.1

> <PUBCHEM_MONOISOTOPIC_WEIGHT>
271.10692467

> <PUBCHEM_TOTAL_CHARGE>
0

> <PUBCHEM_HEAVY_ATOM_COUNT>
20

> <PUBCHEM_ATOM_DEF_STEREO_COUNT>
0

> <PUBCHEM_ATOM_UDEF_STEREO_COUNT>
0

> <PUBCHEM_BOND_DEF_STEREO_COUNT>
0

> <PUBCHEM_BOND_UDEF_STEREO_COUNT>
0

> <PUBCHEM_ISOTOPIC_ATOM_COUNT>
0

> <PUBCHEM_COMPONENT_COUNT>
1

> <PUBCHEM_CACTVS_TAUTO_COUNT>
-1

> <PUBCHEM_COORDINATE_TYPE>
1
5
255

> <PUBCHEM_BONDANNOTATIONS>
11  13  8
11  14  8
13  16  8
14  17  8
16  18  8
17  18  8
3  10  8
3  4  8
4  9  8
5  10  8
5  19  8
6  12  8
6  19  8
8  10  8
8  12  8
8  9  8

$$$$
