49830329
  -OEChem-03202503222D

 56 59  0     1  0  0  0  0  0999 V2000
    7.2566   -0.8645    0.0000 Cl  0  0  0  0  0  0  0  0  0  0  0  0
    6.1851    4.2200    0.0000 O   0  0  0  0  0  0  0  0  0  0  0  0
    6.5422    2.5252    0.0000 N   0  0  0  0  0  0  0  0  0  0  0  0
    3.9639    0.2117    0.0000 N   0  0  0  0  0  0  0  0  0  0  0  0
    4.3211   -1.4831    0.0000 N   0  0  0  0  0  0  0  0  0  0  0  0
    5.6103   -0.3264    0.0000 N   0  0  0  0  0  0  0  0  0  0  0  0
    8.1421    4.6324    0.0000 N   0  0  0  0  0  0  0  0  0  0  0  0
    4.6783   -4.7874    0.0000 N   0  0  0  0  0  0  0  0  0  0  0  0
    2.8660   -4.9827    0.0000 N   0  0  0  0  0  0  0  0  0  0  0  0
    5.5637    2.3190    0.0000 C   0  0  3  0  0  0  0  0  0  0  0  0
    4.2746    1.1622    0.0000 C   0  0  3  0  0  0  0  0  0  0  0  0
    5.2531    1.3684    0.0000 C   0  0  0  0  0  0  0  0  0  0  0  0
    4.8959    3.0633    0.0000 C   0  0  0  0  0  0  0  0  0  0  0  0
    3.6067    1.9065    0.0000 C   0  0  0  0  0  0  0  0  0  0  0  0
    3.9174    2.8570    0.0000 C   0  0  0  0  0  0  0  0  0  0  0  0
    6.8529    3.4757    0.0000 C   0  0  0  0  0  0  0  0  0  0  0  0
    4.6318   -0.5326    0.0000 C   0  0  0  0  0  0  0  0  0  0  0  0
    7.8314    3.6819    0.0000 C   0  0  0  0  0  0  0  0  0  0  0  0
    4.9889   -2.2274    0.0000 C   0  0  0  0  0  0  0  0  0  0  0  0
    4.6783   -3.1780    0.0000 C   0  0  0  0  0  0  0  0  0  0  0  0
    6.2781   -1.0707    0.0000 C   0  0  0  0  0  0  0  0  0  0  0  0
    5.9674   -2.0212    0.0000 C   0  0  0  0  0  0  0  0  0  0  0  0
    9.1206    4.8386    0.0000 C   0  0  0  0  0  0  0  0  0  0  0  0
    7.4742    5.3767    0.0000 C   0  0  0  0  0  0  0  0  0  0  0  0
    3.7320   -3.4827    0.0000 C   0  0  0  0  0  0  0  0  0  0  0  0
    5.2619   -3.9827    0.0000 C   0  0  0  0  0  0  0  0  0  0  0  0
    3.7320   -4.4827    0.0000 C   0  0  0  0  0  0  0  0  0  0  0  0
    2.8660   -2.9827    0.0000 C   0  0  0  0  0  0  0  0  0  0  0  0
    2.0000   -3.4827    0.0000 C   0  0  0  0  0  0  0  0  0  0  0  0
    2.0000   -4.4827    0.0000 C   0  0  0  0  0  0  0  0  0  0  0  0
    5.9778    1.8575    0.0000 H   0  0  0  0  0  0  0  0  0  0  0  0
    4.6886    0.7007    0.0000 H   0  0  0  0  0  0  0  0  0  0  0  0
    5.2736    0.7488    0.0000 H   0  0  0  0  0  0  0  0  0  0  0  0
    5.8669    1.2811    0.0000 H   0  0  0  0  0  0  0  0  0  0  0  0
    5.4222    3.3909    0.0000 H   0  0  0  0  0  0  0  0  0  0  0  0
    4.6646    3.6385    0.0000 H   0  0  0  0  0  0  0  0  0  0  0  0
    3.0598    2.1985    0.0000 H   0  0  0  0  0  0  0  0  0  0  0  0
    3.2242    1.4186    0.0000 H   0  0  0  0  0  0  0  0  0  0  0  0
    3.8968    3.4767    0.0000 H   0  0  0  0  0  0  0  0  0  0  0  0
    3.3036    2.9444    0.0000 H   0  0  0  0  0  0  0  0  0  0  0  0
    6.9563    2.0637    0.0000 H   0  0  0  0  0  0  0  0  0  0  0  0
    3.3572    0.0838    0.0000 H   0  0  0  0  0  0  0  0  0  0  0  0
    7.8520    3.0622    0.0000 H   0  0  0  0  0  0  0  0  0  0  0  0
    8.4452    3.5946    0.0000 H   0  0  0  0  0  0  0  0  0  0  0  0
    6.3815   -2.4827    0.0000 H   0  0  0  0  0  0  0  0  0  0  0  0
    9.2484    4.2320    0.0000 H   0  0  0  0  0  0  0  0  0  0  0  0
    9.7272    4.9665    0.0000 H   0  0  0  0  0  0  0  0  0  0  0  0
    8.9927    5.4453    0.0000 H   0  0  0  0  0  0  0  0  0  0  0  0
    7.9357    5.7908    0.0000 H   0  0  0  0  0  0  0  0  0  0  0  0
    7.0602    5.8382    0.0000 H   0  0  0  0  0  0  0  0  0  0  0  0
    7.0128    4.9627    0.0000 H   0  0  0  0  0  0  0  0  0  0  0  0
    5.8819   -3.9827    0.0000 H   0  0  0  0  0  0  0  0  0  0  0  0
    4.8709   -5.3767    0.0000 H   0  0  0  0  0  0  0  0  0  0  0  0
    2.8660   -2.3627    0.0000 H   0  0  0  0  0  0  0  0  0  0  0  0
    1.4631   -3.1727    0.0000 H   0  0  0  0  0  0  0  0  0  0  0  0
    1.4631   -4.7927    0.0000 H   0  0  0  0  0  0  0  0  0  0  0  0
  1 21  1  0  0  0  0
  2 16  2  0  0  0  0
  3 10  1  0  0  0  0
  3 16  1  0  0  0  0
  3 41  1  0  0  0  0
  4 11  1  0  0  0  0
  4 17  1  0  0  0  0
  4 42  1  0  0  0  0
  5 17  2  0  0  0  0
  5 19  1  0  0  0  0
  6 17  1  0  0  0  0
  6 21  2  0  0  0  0
  7 18  1  0  0  0  0
  7 23  1  0  0  0  0
  7 24  1  0  0  0  0
  8 26  1  0  0  0  0
  8 27  1  0  0  0  0
  8 53  1  0  0  0  0
  9 27  1  0  0  0  0
  9 30  2  0  0  0  0
 10 12  1  0  0  0  0
 10 13  1  0  0  0  0
 10 31  1  0  0  0  0
 11 12  1  0  0  0  0
 11 14  1  0  0  0  0
 11 32  1  0  0  0  0
 12 33  1  0  0  0  0
 12 34  1  0  0  0  0
 13 15  1  0  0  0  0
 13 35  1  0  0  0  0
 13 36  1  0  0  0  0
 14 15  1  0  0  0  0
 14 37  1  0  0  0  0
 14 38  1  0  0  0  0
 15 39  1  0  0  0  0
 15 40  1  0  0  0  0
 16 18  1  0  0  0  0
 18 43  1  0  0  0  0
 18 44  1  0  0  0  0
 19 20  1  0  0  0  0
 19 22  2  0  0  0  0
 20 25  1  0  0  0  0
 20 26  2  0  0  0  0
 21 22  1  0  0  0  0
 22 45  1  0  0  0  0
 23 46  1  0  0  0  0
 23 47  1  0  0  0  0
 23 48  1  0  0  0  0
 24 49  1  0  0  0  0
 24 50  1  0  0  0  0
 24 51  1  0  0  0  0
 25 27  2  0  0  0  0
 25 28  1  0  0  0  0
 26 52  1  0  0  0  0
 28 29  2  0  0  0  0
 28 54  1  0  0  0  0
 29 30  1  0  0  0  0
 29 55  1  0  0  0  0
 30 56  1  0  0  0  0
M  END
> <PUBCHEM_COMPOUND_CID>
49830329

> <PUBCHEM_COMPOUND_CANONICALIZED>
1

> <PUBCHEM_CACTVS_COMPLEXITY>
580

> <PUBCHEM_CACTVS_HBOND_ACCEPTOR>
6

> <PUBCHEM_CACTVS_HBOND_DONOR>
3

> <PUBCHEM_CACTVS_ROTATABLE_BOND>
6

> <PUBCHEM_CACTVS_SUBSKEYS>
AAADceB7oAAEAAAAAAAAAAAAAAAAAWAAAAA8WIAAAAAAAFgB/gAAHgIQAAAADCrBnyQ/sN/JkACoAzd3dACCgCmxB6AJ2aC4ZpiIaOLB2/GUJAholgLIyCcQgIAOgAAAAAAAAAAAAAAACAAAAAAAAAAAAA==

> <PUBCHEM_IUPAC_OPENEYE_NAME>
N-[3-[[4-chloro-6-(1H-pyrrolo[2,3-b]pyridin-3-yl)pyrimidin-2-yl]amino]cyclohexyl]-2-(dimethylamino)acetamide

> <PUBCHEM_IUPAC_CAS_NAME>
N-[3-[[4-chloro-6-(1H-pyrrolo[2,3-b]pyridin-3-yl)-2-pyrimidinyl]amino]cyclohexyl]-2-(dimethylamino)acetamide

> <PUBCHEM_IUPAC_NAME_MARKUP>
<I>N</I>-[3-[[4-chloro-6-(1<I>H</I>-pyrrolo[2,3-b]pyridin-3-yl)pyrimidin-2-yl]amino]cyclohexyl]-2-(dimethylamino)acetamide

> <PUBCHEM_IUPAC_NAME>
N-[3-[[4-chloro-6-(1H-pyrrolo[2,3-b]pyridin-3-yl)pyrimidin-2-yl]amino]cyclohexyl]-2-(dimethylamino)acetamide

> <PUBCHEM_IUPAC_SYSTEMATIC_NAME>
N-[3-[[4-chloranyl-6-(1H-pyrrolo[2,3-b]pyridin-3-yl)pyrimidin-2-yl]amino]cyclohexyl]-2-(dimethylamino)ethanamide

> <PUBCHEM_IUPAC_TRADITIONAL_NAME>
N-[3-[[4-chloro-6-(1H-pyrrolo[2,3-b]pyridin-3-yl)pyrimidin-2-yl]amino]cyclohexyl]-2-(dimethylamino)acetamide

> <PUBCHEM_IUPAC_INCHI>
InChI=1S/C21H26ClN7O/c1-29(2)12-19(30)25-13-5-3-6-14(9-13)26-21-27-17(10-18(22)28-21)16-11-24-20-15(16)7-4-8-23-20/h4,7-8,10-11,13-14H,3,5-6,9,12H2,1-2H3,(H,23,24)(H,25,30)(H,26,27,28)

> <PUBCHEM_IUPAC_INCHIKEY>
RGOPHVZLEMGMBZ-UHFFFAOYSA-N

> <PUBCHEM_XLOGP3_AA>
3.3

> <PUBCHEM_EXACT_MASS>
427.1887362

> <PUBCHEM_MOLECULAR_FORMULA>
C21H26ClN7O

> <PUBCHEM_MOLECULAR_WEIGHT>
427.9

> <PUBCHEM_SMILES>
CN(C)CC(=O)NC1CCCC(C1)NC2=NC(=CC(=N2)Cl)C3=CNC4=C3C=CC=N4

> <PUBCHEM_OPENEYE_CAN_SMILES>
CN(C)CC(=O)NC1CCCC(C1)NC2=NC(=CC(=N2)Cl)C3=CNC4=C3C=CC=N4

> <PUBCHEM_OPENEYE_ISO_SMILES>
CN(C)CC(=O)NC1CCCC(C1)NC2=NC(=CC(=N2)Cl)C3=CNC4=C3C=CC=N4

> <PUBCHEM_CACTVS_TPSA>
98.8

> <PUBCHEM_MONOISOTOPIC_WEIGHT>
427.1887362

> <PUBCHEM_TOTAL_CHARGE>
0

> <PUBCHEM_HEAVY_ATOM_COUNT>
30

> <PUBCHEM_ATOM_DEF_STEREO_COUNT>
0

> <PUBCHEM_ATOM_UDEF_STEREO_COUNT>
2

> <PUBCHEM_BOND_DEF_STEREO_COUNT>
0

> <PUBCHEM_BOND_UDEF_STEREO_COUNT>
0

> <PUBCHEM_ISOTOPIC_ATOM_COUNT>
0

> <PUBCHEM_COMPONENT_COUNT>
1

> <PUBCHEM_CACTVS_TAUTO_COUNT>
-1

> <PUBCHEM_COORDINATE_TYPE>
1
5
255

> <PUBCHEM_BONDANNOTATIONS>
19  22  8
20  25  8
20  26  8
21  22  8
25  27  8
25  28  8
28  29  8
29  30  8
10  3  3
11  4  3
5  17  8
5  19  8
6  17  8
6  21  8
8  26  8
8  27  8
9  27  8
9  30  8

$$$$
