49830928
  -OEChem-03202501212D

 41 43  0     0  0  0  0  0  0999 V2000
    6.1211   -3.0779    0.0000 O   0  0  0  0  0  0  0  0  0  0  0  0
    8.4353    0.6388    0.0000 O   0  0  0  0  0  0  0  0  0  0  0  0
    6.4783   -1.3831    0.0000 N   0  0  0  0  0  0  0  0  0  0  0  0
    7.0619   -0.5784    0.0000 N   0  0  0  0  0  0  0  0  0  0  0  0
    4.6660   -1.5784    0.0000 N   0  0  0  0  0  0  0  0  0  0  0  0
    6.7889    1.1769    0.0000 N   0  0  0  0  0  0  0  0  0  0  0  0
    5.5321   -0.0784    0.0000 C   0  0  0  0  0  0  0  0  0  0  0  0
    5.5321   -1.0784    0.0000 C   0  0  0  0  0  0  0  0  0  0  0  0
    6.4783    0.2264    0.0000 C   0  0  0  0  0  0  0  0  0  0  0  0
    4.6660    0.4216    0.0000 C   0  0  0  0  0  0  0  0  0  0  0  0
    3.8000   -0.0784    0.0000 C   0  0  0  0  0  0  0  0  0  0  0  0
    3.8000   -1.0784    0.0000 C   0  0  0  0  0  0  0  0  0  0  0  0
    6.7889   -2.3336    0.0000 C   0  0  0  0  0  0  0  0  0  0  0  0
    8.0781    2.3336    0.0000 C   0  0  0  0  0  0  0  0  0  0  0  0
    7.7674    1.3831    0.0000 C   0  0  0  0  0  0  0  0  0  0  0  0
    2.9061    0.4563    0.0000 C   0  0  0  0  0  0  0  0  0  0  0  0
    7.7674   -2.5398    0.0000 C   0  0  0  0  0  0  0  0  0  0  0  0
    9.0566    2.5398    0.0000 C   0  0  0  0  0  0  0  0  0  0  0  0
    2.9061   -1.6130    0.0000 C   0  0  0  0  0  0  0  0  0  0  0  0
    2.0000   -0.0576    0.0000 C   0  0  0  0  0  0  0  0  0  0  0  0
    2.0000   -1.0992    0.0000 C   0  0  0  0  0  0  0  0  0  0  0  0
    9.3673    3.4904    0.0000 C   0  0  0  0  0  0  0  0  0  0  0  0
    8.0781   -3.4904    0.0000 C   0  0  0  0  0  0  0  0  0  0  0  0
    4.6660    1.0416    0.0000 H   0  0  0  0  0  0  0  0  0  0  0  0
    6.3749    1.6384    0.0000 H   0  0  0  0  0  0  0  0  0  0  0  0
    8.0575    2.9533    0.0000 H   0  0  0  0  0  0  0  0  0  0  0  0
    7.4643    2.4210    0.0000 H   0  0  0  0  0  0  0  0  0  0  0  0
    2.9132    1.0762    0.0000 H   0  0  0  0  0  0  0  0  0  0  0  0
    8.3813   -2.4525    0.0000 H   0  0  0  0  0  0  0  0  0  0  0  0
    7.7880   -1.9202    0.0000 H   0  0  0  0  0  0  0  0  0  0  0  0
    9.0772    1.9202    0.0000 H   0  0  0  0  0  0  0  0  0  0  0  0
    9.6704    2.4525    0.0000 H   0  0  0  0  0  0  0  0  0  0  0  0
    2.9132   -2.2330    0.0000 H   0  0  0  0  0  0  0  0  0  0  0  0
    1.4643    0.2545    0.0000 H   0  0  0  0  0  0  0  0  0  0  0  0
    1.4643   -1.4112    0.0000 H   0  0  0  0  0  0  0  0  0  0  0  0
    9.9566    3.2978    0.0000 H   0  0  0  0  0  0  0  0  0  0  0  0
    9.5599    4.0797    0.0000 H   0  0  0  0  0  0  0  0  0  0  0  0
    8.7780    3.6830    0.0000 H   0  0  0  0  0  0  0  0  0  0  0  0
    7.4888   -3.6830    0.0000 H   0  0  0  0  0  0  0  0  0  0  0  0
    8.2707   -4.0797    0.0000 H   0  0  0  0  0  0  0  0  0  0  0  0
    8.6674   -3.2978    0.0000 H   0  0  0  0  0  0  0  0  0  0  0  0
  1 13  2  0  0  0  0
  2 15  2  0  0  0  0
  3  4  1  0  0  0  0
  3  8  1  0  0  0  0
  3 13  1  0  0  0  0
  4  9  2  0  0  0  0
  5  8  2  0  0  0  0
  5 12  1  0  0  0  0
  6  9  1  0  0  0  0
  6 15  1  0  0  0  0
  6 25  1  0  0  0  0
  7  8  1  0  0  0  0
  7  9  1  0  0  0  0
  7 10  2  0  0  0  0
 10 11  1  0  0  0  0
 10 24  1  0  0  0  0
 11 12  1  0  0  0  0
 11 16  2  0  0  0  0
 12 19  2  0  0  0  0
 13 17  1  0  0  0  0
 14 15  1  0  0  0  0
 14 18  1  0  0  0  0
 14 26  1  0  0  0  0
 14 27  1  0  0  0  0
 16 20  1  0  0  0  0
 16 28  1  0  0  0  0
 17 23  1  0  0  0  0
 17 29  1  0  0  0  0
 17 30  1  0  0  0  0
 18 22  1  0  0  0  0
 18 31  1  0  0  0  0
 18 32  1  0  0  0  0
 19 21  1  0  0  0  0
 19 33  1  0  0  0  0
 20 21  2  0  0  0  0
 20 34  1  0  0  0  0
 21 35  1  0  0  0  0
 22 36  1  0  0  0  0
 22 37  1  0  0  0  0
 22 38  1  0  0  0  0
 23 39  1  0  0  0  0
 23 40  1  0  0  0  0
 23 41  1  0  0  0  0
M  END
> <PUBCHEM_COMPOUND_CID>
49830928

> <PUBCHEM_COMPOUND_CANONICALIZED>
1

> <PUBCHEM_CACTVS_COMPLEXITY>
456

> <PUBCHEM_CACTVS_HBOND_ACCEPTOR>
4

> <PUBCHEM_CACTVS_HBOND_DONOR>
1

> <PUBCHEM_CACTVS_ROTATABLE_BOND>
4

> <PUBCHEM_CACTVS_SUBSKEYS>
AAADceB7sAAAAAAAAAAAAAAAAAAAAWAAAAA8QAAAAAAAAFix/gAAHgAYAAAADAiBnwAz8P7IEACqAydydACShCshAqAfmCEwZJiIKPLA2dGEpAh4nQLIyCcQgMAOAAAAAAACAAAAAAAAAAQAAAAAAAAAAA==

> <PUBCHEM_IUPAC_OPENEYE_NAME>
N-(1-propanoylpyrazolo[3,4-b]quinolin-3-yl)butanamide

> <PUBCHEM_IUPAC_CAS_NAME>
N-[1-(1-oxopropyl)-3-pyrazolo[3,4-b]quinolinyl]butanamide

> <PUBCHEM_IUPAC_NAME_MARKUP>
<I>N</I>-(1-propanoylpyrazolo[3,4-b]quinolin-3-yl)butanamide

> <PUBCHEM_IUPAC_NAME>
N-(1-propanoylpyrazolo[3,4-b]quinolin-3-yl)butanamide

> <PUBCHEM_IUPAC_SYSTEMATIC_NAME>
N-(1-propanoylpyrazolo[3,4-b]quinolin-3-yl)butanamide

> <PUBCHEM_IUPAC_TRADITIONAL_NAME>
N-(1-propionylpyrazolo[3,4-b]quinolin-3-yl)butyramide

> <PUBCHEM_IUPAC_INCHI>
InChI=1S/C17H18N4O2/c1-3-7-14(22)19-16-12-10-11-8-5-6-9-13(11)18-17(12)21(20-16)15(23)4-2/h5-6,8-10H,3-4,7H2,1-2H3,(H,19,20,22)

> <PUBCHEM_IUPAC_INCHIKEY>
BHGSKYNWCFIOHP-UHFFFAOYSA-N

> <PUBCHEM_XLOGP3_AA>
2.6

> <PUBCHEM_EXACT_MASS>
310.14297583

> <PUBCHEM_MOLECULAR_FORMULA>
C17H18N4O2

> <PUBCHEM_MOLECULAR_WEIGHT>
310.35

> <PUBCHEM_SMILES>
CCCC(=O)NC1=NN(C2=NC3=CC=CC=C3C=C12)C(=O)CC

> <PUBCHEM_OPENEYE_CAN_SMILES>
CCCC(=O)NC1=NN(C2=NC3=CC=CC=C3C=C12)C(=O)CC

> <PUBCHEM_OPENEYE_ISO_SMILES>
CCCC(=O)NC1=NN(C2=NC3=CC=CC=C3C=C12)C(=O)CC

> <PUBCHEM_CACTVS_TPSA>
76.9

> <PUBCHEM_MONOISOTOPIC_WEIGHT>
310.14297583

> <PUBCHEM_TOTAL_CHARGE>
0

> <PUBCHEM_HEAVY_ATOM_COUNT>
23

> <PUBCHEM_ATOM_DEF_STEREO_COUNT>
0

> <PUBCHEM_ATOM_UDEF_STEREO_COUNT>
0

> <PUBCHEM_BOND_DEF_STEREO_COUNT>
0

> <PUBCHEM_BOND_UDEF_STEREO_COUNT>
0

> <PUBCHEM_ISOTOPIC_ATOM_COUNT>
0

> <PUBCHEM_COMPONENT_COUNT>
1

> <PUBCHEM_CACTVS_TAUTO_COUNT>
-1

> <PUBCHEM_COORDINATE_TYPE>
1
5
255

> <PUBCHEM_BONDANNOTATIONS>
10  11  8
11  12  8
11  16  8
12  19  8
16  20  8
19  21  8
20  21  8
3  4  8
3  8  8
4  9  8
5  12  8
5  8  8
7  10  8
7  8  8
7  9  8

$$$$
