49831016
  -OEChem-03202503212D

 20 22  0     0  0  0  0  0  0999 V2000
    2.0000    0.4742    0.0000 Br  0  0  0  0  0  0  0  0  0  0  0  0
    5.8143   -1.3830    0.0000 N   0  0  0  0  0  0  0  0  0  0  0  0
    6.8084   -1.3821    0.0000 N   0  0  0  0  0  0  0  0  0  0  0  0
    6.0047    1.1005    0.0000 C   0  0  0  0  0  0  0  0  0  0  0  0
    5.0047    1.1005    0.0000 C   0  0  0  0  0  0  0  0  0  0  0  0
    6.3137    0.1494    0.0000 C   0  0  0  0  0  0  0  0  0  0  0  0
    4.6957    0.1494    0.0000 C   0  0  0  0  0  0  0  0  0  0  0  0
    5.5047   -0.4384    0.0000 C   0  0  0  0  0  0  0  0  0  0  0  0
    4.3197    1.8852    0.0000 C   0  0  0  0  0  0  0  0  0  0  0  0
    3.6803   -0.0828    0.0000 C   0  0  0  0  0  0  0  0  0  0  0  0
    7.1164   -0.4370    0.0000 C   0  0  0  0  0  0  0  0  0  0  0  0
    3.2992    1.6765    0.0000 C   0  0  0  0  0  0  0  0  0  0  0  0
    2.9773    0.6859    0.0000 C   0  0  0  0  0  0  0  0  0  0  0  0
    6.6112    1.2294    0.0000 H   0  0  0  0  0  0  0  0  0  0  0  0
    5.9399    1.7171    0.0000 H   0  0  0  0  0  0  0  0  0  0  0  0
    4.5181    2.4726    0.0000 H   0  0  0  0  0  0  0  0  0  0  0  0
    3.4955   -0.6747    0.0000 H   0  0  0  0  0  0  0  0  0  0  0  0
    7.7064   -0.2464    0.0000 H   0  0  0  0  0  0  0  0  0  0  0  0
    5.4508   -1.8852    0.0000 H   0  0  0  0  0  0  0  0  0  0  0  0
    2.8861    2.1388    0.0000 H   0  0  0  0  0  0  0  0  0  0  0  0
  1 13  1  0  0  0  0
  2  3  1  0  0  0  0
  2  8  1  0  0  0  0
  2 19  1  0  0  0  0
  3 11  2  0  0  0  0
  4  5  1  0  0  0  0
  4  6  1  0  0  0  0
  4 14  1  0  0  0  0
  4 15  1  0  0  0  0
  5  7  2  0  0  0  0
  5  9  1  0  0  0  0
  6  8  2  0  0  0  0
  6 11  1  0  0  0  0
  7  8  1  0  0  0  0
  7 10  1  0  0  0  0
  9 12  2  0  0  0  0
  9 16  1  0  0  0  0
 10 13  2  0  0  0  0
 10 17  1  0  0  0  0
 11 18  1  0  0  0  0
 12 13  1  0  0  0  0
 12 20  1  0  0  0  0
M  END
> <PUBCHEM_COMPOUND_CID>
49831016

> <PUBCHEM_COMPOUND_CANONICALIZED>
1

> <PUBCHEM_CACTVS_COMPLEXITY>
209

> <PUBCHEM_CACTVS_HBOND_ACCEPTOR>
1

> <PUBCHEM_CACTVS_HBOND_DONOR>
1

> <PUBCHEM_CACTVS_ROTATABLE_BOND>
0

> <PUBCHEM_CACTVS_SUBSKEYS>
AAADcYBzAAAAEAAAAAAAAAAAAAAAAeIAAAAwAAAAAAAWAGABwAAAHABYAAABrAjBHgQ8gJBjAACiAzRnQACSBAAggAQYuSAgRLgIIKKA0dGApABgiAAIyhcQgMAOggAAEAAQAAAEAAAgACAAASAACQAAAA==

> <PUBCHEM_IUPAC_OPENEYE_NAME>
7-bromo-1,4-dihydroindeno[1,2-c]pyrazole

> <PUBCHEM_IUPAC_CAS_NAME>
7-bromo-1,4-dihydroindeno[1,2-c]pyrazole

> <PUBCHEM_IUPAC_NAME_MARKUP>
7-bromo-1,4-dihydroindeno[1,2-c]pyrazole

> <PUBCHEM_IUPAC_NAME>
7-bromo-1,4-dihydroindeno[1,2-c]pyrazole

> <PUBCHEM_IUPAC_SYSTEMATIC_NAME>
7-bromanyl-1,4-dihydroindeno[1,2-c]pyrazole

> <PUBCHEM_IUPAC_TRADITIONAL_NAME>
7-bromo-1,4-dihydroindeno[1,2-c]pyrazole

> <PUBCHEM_IUPAC_INCHI>
InChI=1S/C10H7BrN2/c11-8-2-1-6-3-7-5-12-13-10(7)9(6)4-8/h1-2,4-5H,3H2,(H,12,13)

> <PUBCHEM_IUPAC_INCHIKEY>
IIIJQZOSLLAVTL-UHFFFAOYSA-N

> <PUBCHEM_XLOGP3_AA>
2.6

> <PUBCHEM_EXACT_MASS>
233.97926

> <PUBCHEM_MOLECULAR_FORMULA>
C10H7BrN2

> <PUBCHEM_MOLECULAR_WEIGHT>
235.08

> <PUBCHEM_SMILES>
C1C2=C(C=C(C=C2)Br)C3=C1C=NN3

> <PUBCHEM_OPENEYE_CAN_SMILES>
C1C2=C(C=C(C=C2)Br)C3=C1C=NN3

> <PUBCHEM_OPENEYE_ISO_SMILES>
C1C2=C(C=C(C=C2)Br)C3=C1C=NN3

> <PUBCHEM_CACTVS_TPSA>
28.7

> <PUBCHEM_MONOISOTOPIC_WEIGHT>
233.97926

> <PUBCHEM_TOTAL_CHARGE>
0

> <PUBCHEM_HEAVY_ATOM_COUNT>
13

> <PUBCHEM_ATOM_DEF_STEREO_COUNT>
0

> <PUBCHEM_ATOM_UDEF_STEREO_COUNT>
0

> <PUBCHEM_BOND_DEF_STEREO_COUNT>
0

> <PUBCHEM_BOND_UDEF_STEREO_COUNT>
0

> <PUBCHEM_ISOTOPIC_ATOM_COUNT>
0

> <PUBCHEM_COMPONENT_COUNT>
1

> <PUBCHEM_CACTVS_TAUTO_COUNT>
-1

> <PUBCHEM_COORDINATE_TYPE>
1
5
255

> <PUBCHEM_BONDANNOTATIONS>
10  13  8
12  13  8
2  3  8
2  8  8
3  11  8
5  7  8
5  9  8
6  11  8
6  8  8
7  10  8
9  12  8

$$$$
