49830696
  -OEChem-03202501492D

 34 35  0     0  0  0  0  0  0999 V2000
    6.3301   -3.0000    0.0000 Cl  0  0  0  0  0  0  0  0  0  0  0  0
    2.8660   -1.0000    0.0000 O   0  0  0  0  0  0  0  0  0  0  0  0
    6.3301   -0.0000    0.0000 O   0  0  0  0  0  0  0  0  0  0  0  0
    4.5981   -0.0000    0.0000 N   0  0  0  0  0  0  0  0  0  0  0  0
    5.4641    1.5000    0.0000 N   0  0  0  0  0  0  0  0  0  0  0  0
    7.1962    1.5000    0.0000 N   0  0  0  0  0  0  0  0  0  0  0  0
    7.1962    3.5000    0.0000 N   0  0  0  0  0  0  0  0  0  0  0  0
    9.7942    4.0000    0.0000 N   0  0  0  0  0  0  0  0  0  0  0  0
    4.5981   -1.0000    0.0000 C   0  0  0  0  0  0  0  0  0  0  0  0
    3.7320   -1.5000    0.0000 C   0  0  0  0  0  0  0  0  0  0  0  0
    4.5981   -3.0000    0.0000 C   0  0  0  0  0  0  0  0  0  0  0  0
    3.7320   -2.5000    0.0000 C   0  0  0  0  0  0  0  0  0  0  0  0
    5.4641   -1.5000    0.0000 C   0  0  0  0  0  0  0  0  0  0  0  0
    5.4641   -2.5000    0.0000 C   0  0  0  0  0  0  0  0  0  0  0  0
    4.5981   -4.0000    0.0000 C   0  0  0  0  0  0  0  0  0  0  0  0
    5.4641    0.5000    0.0000 C   0  0  0  0  0  0  0  0  0  0  0  0
    6.3301    2.0000    0.0000 C   0  0  0  0  0  0  0  0  0  0  0  0
    2.0000   -1.5000    0.0000 C   0  0  0  0  0  0  0  0  0  0  0  0
    6.3301    3.0000    0.0000 C   0  0  0  0  0  0  0  0  0  0  0  0
    8.0622    2.0000    0.0000 C   0  0  0  0  0  0  0  0  0  0  0  0
    8.0622    3.0000    0.0000 C   0  0  0  0  0  0  0  0  0  0  0  0
    8.9282    3.5000    0.0000 C   0  0  0  0  0  0  0  0  0  0  0  0
    3.1951   -2.8100    0.0000 H   0  0  0  0  0  0  0  0  0  0  0  0
    6.0010   -1.1900    0.0000 H   0  0  0  0  0  0  0  0  0  0  0  0
    4.0611    0.3100    0.0000 H   0  0  0  0  0  0  0  0  0  0  0  0
    3.9781   -4.0000    0.0000 H   0  0  0  0  0  0  0  0  0  0  0  0
    4.5981   -4.6200    0.0000 H   0  0  0  0  0  0  0  0  0  0  0  0
    5.2181   -4.0000    0.0000 H   0  0  0  0  0  0  0  0  0  0  0  0
    4.9272    1.8100    0.0000 H   0  0  0  0  0  0  0  0  0  0  0  0
    1.6900   -0.9631    0.0000 H   0  0  0  0  0  0  0  0  0  0  0  0
    1.4631   -1.8100    0.0000 H   0  0  0  0  0  0  0  0  0  0  0  0
    2.3100   -2.0369    0.0000 H   0  0  0  0  0  0  0  0  0  0  0  0
    5.7932    3.3100    0.0000 H   0  0  0  0  0  0  0  0  0  0  0  0
    8.5991    1.6900    0.0000 H   0  0  0  0  0  0  0  0  0  0  0  0
  1 14  1  0  0  0  0
  2 10  1  0  0  0  0
  2 18  1  0  0  0  0
  3 16  2  0  0  0  0
  4  9  1  0  0  0  0
  4 16  1  0  0  0  0
  4 25  1  0  0  0  0
  5 16  1  0  0  0  0
  5 17  1  0  0  0  0
  5 29  1  0  0  0  0
  6 17  2  0  0  0  0
  6 20  1  0  0  0  0
  7 19  2  0  0  0  0
  7 21  1  0  0  0  0
  8 22  3  0  0  0  0
  9 10  2  0  0  0  0
  9 13  1  0  0  0  0
 10 12  1  0  0  0  0
 11 12  2  0  0  0  0
 11 14  1  0  0  0  0
 11 15  1  0  0  0  0
 12 23  1  0  0  0  0
 13 14  2  0  0  0  0
 13 24  1  0  0  0  0
 15 26  1  0  0  0  0
 15 27  1  0  0  0  0
 15 28  1  0  0  0  0
 17 19  1  0  0  0  0
 18 30  1  0  0  0  0
 18 31  1  0  0  0  0
 18 32  1  0  0  0  0
 19 33  1  0  0  0  0
 20 21  2  0  0  0  0
 20 34  1  0  0  0  0
 21 22  1  0  0  0  0
M  END
> <PUBCHEM_COMPOUND_CID>
49830696

> <PUBCHEM_COMPOUND_CANONICALIZED>
1

> <PUBCHEM_CACTVS_COMPLEXITY>
440

> <PUBCHEM_CACTVS_HBOND_ACCEPTOR>
5

> <PUBCHEM_CACTVS_HBOND_DONOR>
2

> <PUBCHEM_CACTVS_ROTATABLE_BOND>
3

> <PUBCHEM_CACTVS_SUBSKEYS>
AAADccBzsAAEAAAAAAAAAAAAAAAAAAAAAAA8QAAAAAAAAAABwAAAHgIQAAAADA7BniY/9pLIFAC4BzZndACiiC0xNyAB2AA/foiO5mLFs5uVMChs1RPY6CeQwBAOCCABAAIBEAAQQAIABAIgAAAAAAAAAA==

> <PUBCHEM_IUPAC_OPENEYE_NAME>
1-(5-chloro-2-methoxy-4-methyl-phenyl)-3-(5-cyanopyrazin-2-yl)urea

> <PUBCHEM_IUPAC_CAS_NAME>
1-(5-chloro-2-methoxy-4-methylphenyl)-3-(5-cyano-2-pyrazinyl)urea

> <PUBCHEM_IUPAC_NAME_MARKUP>
1-(5-chloro-2-methoxy-4-methylphenyl)-3-(5-cyanopyrazin-2-yl)urea

> <PUBCHEM_IUPAC_NAME>
1-(5-chloro-2-methoxy-4-methylphenyl)-3-(5-cyanopyrazin-2-yl)urea

> <PUBCHEM_IUPAC_SYSTEMATIC_NAME>
1-(5-chloranyl-2-methoxy-4-methyl-phenyl)-3-(5-cyanopyrazin-2-yl)urea

> <PUBCHEM_IUPAC_TRADITIONAL_NAME>
1-(5-chloro-2-methoxy-4-methyl-phenyl)-3-(5-cyanopyrazin-2-yl)urea

> <PUBCHEM_IUPAC_INCHI>
InChI=1S/C14H12ClN5O2/c1-8-3-12(22-2)11(4-10(8)15)19-14(21)20-13-7-17-9(5-16)6-18-13/h3-4,6-7H,1-2H3,(H2,18,19,20,21)

> <PUBCHEM_IUPAC_INCHIKEY>
BPJQSSSZFGZEOF-UHFFFAOYSA-N

> <PUBCHEM_XLOGP3_AA>
1.7

> <PUBCHEM_EXACT_MASS>
317.0679523

> <PUBCHEM_MOLECULAR_FORMULA>
C14H12ClN5O2

> <PUBCHEM_MOLECULAR_WEIGHT>
317.73

> <PUBCHEM_SMILES>
CC1=CC(=C(C=C1Cl)NC(=O)NC2=NC=C(N=C2)C#N)OC

> <PUBCHEM_OPENEYE_CAN_SMILES>
CC1=CC(=C(C=C1Cl)NC(=O)NC2=NC=C(N=C2)C#N)OC

> <PUBCHEM_OPENEYE_ISO_SMILES>
CC1=CC(=C(C=C1Cl)NC(=O)NC2=NC=C(N=C2)C#N)OC

> <PUBCHEM_CACTVS_TPSA>
99.9

> <PUBCHEM_MONOISOTOPIC_WEIGHT>
317.0679523

> <PUBCHEM_TOTAL_CHARGE>
0

> <PUBCHEM_HEAVY_ATOM_COUNT>
22

> <PUBCHEM_ATOM_DEF_STEREO_COUNT>
0

> <PUBCHEM_ATOM_UDEF_STEREO_COUNT>
0

> <PUBCHEM_BOND_DEF_STEREO_COUNT>
0

> <PUBCHEM_BOND_UDEF_STEREO_COUNT>
0

> <PUBCHEM_ISOTOPIC_ATOM_COUNT>
0

> <PUBCHEM_COMPONENT_COUNT>
1

> <PUBCHEM_CACTVS_TAUTO_COUNT>
-1

> <PUBCHEM_COORDINATE_TYPE>
1
5
255

> <PUBCHEM_BONDANNOTATIONS>
10  12  8
11  12  8
11  14  8
13  14  8
17  19  8
20  21  8
6  17  8
6  20  8
7  19  8
7  21  8
9  10  8
9  13  8

$$$$
