24905239
  -OEChem-03192523582D

 39 42  0     0  0  0  0  0  0999 V2000
    4.6783   -2.5201    0.0000 N   0  0  0  0  0  0  0  0  0  0  0  0
    5.2619   -1.7154    0.0000 N   0  0  0  0  0  0  0  0  0  0  0  0
    2.8660   -2.7154    0.0000 N   0  0  0  0  0  0  0  0  0  0  0  0
    7.1859    1.6017    0.0000 N   0  0  0  0  0  0  0  0  0  0  0  0
    2.0000   -1.2154    0.0000 N   0  0  0  0  0  0  0  0  0  0  0  0
    7.0828    2.5904    0.0000 N   0  0  0  0  0  0  0  0  0  0  0  0
    2.8660    0.2846    0.0000 N   0  0  0  0  0  0  0  0  0  0  0  0
    5.7074    3.7146    0.0000 N   0  0  0  0  0  0  0  0  0  0  0  0
    4.9889   -3.4706    0.0000 C   0  0  0  0  0  0  0  0  0  0  0  0
    4.6783   -0.9106    0.0000 C   0  0  0  0  0  0  0  0  0  0  0  0
    3.7320   -1.2154    0.0000 C   0  0  0  0  0  0  0  0  0  0  0  0
    3.7320   -2.2154    0.0000 C   0  0  0  0  0  0  0  0  0  0  0  0
    4.9889    0.0399    0.0000 C   0  0  0  0  0  0  0  0  0  0  0  0
    5.9674   -3.6768    0.0000 C   0  0  0  0  0  0  0  0  0  0  0  0
    4.3211   -4.2149    0.0000 C   0  0  0  0  0  0  0  0  0  0  0  0
    5.9674    0.2461    0.0000 C   0  0  0  0  0  0  0  0  0  0  0  0
    6.2781    1.1966    0.0000 C   0  0  0  0  0  0  0  0  0  0  0  0
    2.8660   -0.7154    0.0000 C   0  0  0  0  0  0  0  0  0  0  0  0
    5.6103    1.9409    0.0000 C   0  0  0  0  0  0  0  0  0  0  0  0
    4.3211    0.7842    0.0000 C   0  0  0  0  0  0  0  0  0  0  0  0
    4.6318    1.7347    0.0000 C   0  0  0  0  0  0  0  0  0  0  0  0
    6.1110    2.7997    0.0000 C   0  0  0  0  0  0  0  0  0  0  0  0
    2.0000   -2.2154    0.0000 C   0  0  0  0  0  0  0  0  0  0  0  0
    5.1815   -4.0600    0.0000 H   0  0  0  0  0  0  0  0  0  0  0  0
    5.8396   -4.2835    0.0000 H   0  0  0  0  0  0  0  0  0  0  0  0
    6.5741   -3.8047    0.0000 H   0  0  0  0  0  0  0  0  0  0  0  0
    6.0953   -3.0702    0.0000 H   0  0  0  0  0  0  0  0  0  0  0  0
    3.8596   -3.8009    0.0000 H   0  0  0  0  0  0  0  0  0  0  0  0
    3.9070   -4.6764    0.0000 H   0  0  0  0  0  0  0  0  0  0  0  0
    4.7826   -4.6290    0.0000 H   0  0  0  0  0  0  0  0  0  0  0  0
    6.3815   -0.2154    0.0000 H   0  0  0  0  0  0  0  0  0  0  0  0
    3.7144    0.6563    0.0000 H   0  0  0  0  0  0  0  0  0  0  0  0
    4.2177    2.1962    0.0000 H   0  0  0  0  0  0  0  0  0  0  0  0
    7.7228    1.2917    0.0000 H   0  0  0  0  0  0  0  0  0  0  0  0
    1.4631   -2.5254    0.0000 H   0  0  0  0  0  0  0  0  0  0  0  0
    2.3291    0.5946    0.0000 H   0  0  0  0  0  0  0  0  0  0  0  0
    3.4030    0.5946    0.0000 H   0  0  0  0  0  0  0  0  0  0  0  0
    6.0736    4.2149    0.0000 H   0  0  0  0  0  0  0  0  0  0  0  0
    5.0911    3.7816    0.0000 H   0  0  0  0  0  0  0  0  0  0  0  0
  1  2  1  0  0  0  0
  1  9  1  0  0  0  0
  1 12  1  0  0  0  0
  2 10  2  0  0  0  0
  3 12  2  0  0  0  0
  3 23  1  0  0  0  0
  4  6  1  0  0  0  0
  4 17  1  0  0  0  0
  4 34  1  0  0  0  0
  5 18  1  0  0  0  0
  5 23  2  0  0  0  0
  6 22  2  0  0  0  0
  7 18  1  0  0  0  0
  7 36  1  0  0  0  0
  7 37  1  0  0  0  0
  8 22  1  0  0  0  0
  8 38  1  0  0  0  0
  8 39  1  0  0  0  0
  9 14  1  0  0  0  0
  9 15  1  0  0  0  0
  9 24  1  0  0  0  0
 10 11  1  0  0  0  0
 10 13  1  0  0  0  0
 11 12  1  0  0  0  0
 11 18  2  0  0  0  0
 13 16  2  0  0  0  0
 13 20  1  0  0  0  0
 14 25  1  0  0  0  0
 14 26  1  0  0  0  0
 14 27  1  0  0  0  0
 15 28  1  0  0  0  0
 15 29  1  0  0  0  0
 15 30  1  0  0  0  0
 16 17  1  0  0  0  0
 16 31  1  0  0  0  0
 17 19  2  0  0  0  0
 19 21  1  0  0  0  0
 19 22  1  0  0  0  0
 20 21  2  0  0  0  0
 20 32  1  0  0  0  0
 21 33  1  0  0  0  0
 23 35  1  0  0  0  0
M  END
> <PUBCHEM_COMPOUND_CID>
24905239

> <PUBCHEM_COMPOUND_CANONICALIZED>
1

> <PUBCHEM_CACTVS_COMPLEXITY>
432

> <PUBCHEM_CACTVS_HBOND_ACCEPTOR>
6

> <PUBCHEM_CACTVS_HBOND_DONOR>
3

> <PUBCHEM_CACTVS_ROTATABLE_BOND>
2

> <PUBCHEM_CACTVS_SUBSKEYS>
AAADceBzwAAAAAAAAAAAAAAAAAAAAWLAAAA8QAAAAAAAAFgB/gAAHAAYAAAADCjBHwQ38P5rEACiAyZjZACShCsxgqAd+SA4ZJiIKKLA2dGEpAh4mALIyCcQgMAOQAAAQAACAACAAACAAAQAAAAAAAAAAA==

> <PUBCHEM_IUPAC_OPENEYE_NAME>
3-(3-amino-1H-indazol-6-yl)-1-isopropyl-pyrazolo[3,4-d]pyrimidin-4-amine

> <PUBCHEM_IUPAC_CAS_NAME>
3-(3-amino-1H-indazol-6-yl)-1-propan-2-yl-4-pyrazolo[3,4-d]pyrimidinamine

> <PUBCHEM_IUPAC_NAME_MARKUP>
3-(3-amino-1<I>H</I>-indazol-6-yl)-1-propan-2-ylpyrazolo[3,4-d]pyrimidin-4-amine

> <PUBCHEM_IUPAC_NAME>
3-(3-amino-1H-indazol-6-yl)-1-propan-2-ylpyrazolo[3,4-d]pyrimidin-4-amine

> <PUBCHEM_IUPAC_SYSTEMATIC_NAME>
3-(3-azanyl-1H-indazol-6-yl)-1-propan-2-yl-pyrazolo[3,4-d]pyrimidin-4-amine

> <PUBCHEM_IUPAC_TRADITIONAL_NAME>
[3-(3-amino-1H-indazol-6-yl)-1-isopropyl-pyrazolo[3,4-d]pyrimidin-4-yl]amine

> <PUBCHEM_IUPAC_INCHI>
InChI=1S/C15H16N8/c1-7(2)23-15-11(14(17)18-6-19-15)12(22-23)8-3-4-9-10(5-8)20-21-13(9)16/h3-7H,1-2H3,(H3,16,20,21)(H2,17,18,19)

> <PUBCHEM_IUPAC_INCHIKEY>
QBPMDFDPUIVKQA-UHFFFAOYSA-N

> <PUBCHEM_XLOGP3_AA>
1.5

> <PUBCHEM_EXACT_MASS>
308.14979254

> <PUBCHEM_MOLECULAR_FORMULA>
C15H16N8

> <PUBCHEM_MOLECULAR_WEIGHT>
308.34

> <PUBCHEM_SMILES>
CC(C)N1C2=NC=NC(=C2C(=N1)C3=CC4=C(C=C3)C(=NN4)N)N

> <PUBCHEM_OPENEYE_CAN_SMILES>
CC(C)N1C2=NC=NC(=C2C(=N1)C3=CC4=C(C=C3)C(=NN4)N)N

> <PUBCHEM_OPENEYE_ISO_SMILES>
CC(C)N1C2=NC=NC(=C2C(=N1)C3=CC4=C(C=C3)C(=NN4)N)N

> <PUBCHEM_CACTVS_TPSA>
124

> <PUBCHEM_MONOISOTOPIC_WEIGHT>
308.14979254

> <PUBCHEM_TOTAL_CHARGE>
0

> <PUBCHEM_HEAVY_ATOM_COUNT>
23

> <PUBCHEM_ATOM_DEF_STEREO_COUNT>
0

> <PUBCHEM_ATOM_UDEF_STEREO_COUNT>
0

> <PUBCHEM_BOND_DEF_STEREO_COUNT>
0

> <PUBCHEM_BOND_UDEF_STEREO_COUNT>
0

> <PUBCHEM_ISOTOPIC_ATOM_COUNT>
0

> <PUBCHEM_COMPONENT_COUNT>
1

> <PUBCHEM_CACTVS_TAUTO_COUNT>
-1

> <PUBCHEM_COORDINATE_TYPE>
1
5
255

> <PUBCHEM_BONDANNOTATIONS>
1  12  8
1  2  8
10  11  8
11  12  8
11  18  8
13  16  8
13  20  8
16  17  8
17  19  8
19  21  8
19  22  8
2  10  8
20  21  8
3  12  8
3  23  8
4  17  8
4  6  8
5  18  8
5  23  8
6  22  8

$$$$
