44329007
  -OEChem-03202507352D

 61 67  0     1  0  0  0  0  0999 V2000
    2.0000    3.3908    0.0000 O   0  0  0  0  0  0  0  0  0  0  0  0
   12.0649   -1.9572    0.0000 O   0  0  0  0  0  0  0  0  0  0  0  0
    5.4034    0.3465    0.0000 O   0  0  0  0  0  0  0  0  0  0  0  0
    8.3389    0.9651    0.0000 N   0  0  0  0  0  0  0  0  0  0  0  0
    8.3389   -1.3690    0.0000 N   0  0  0  0  0  0  0  0  0  0  0  0
   12.3378   -0.2019    0.0000 N   0  0  0  0  0  0  0  0  0  0  0  0
    5.0462    2.0413    0.0000 N   0  0  0  0  0  0  0  0  0  0  0  0
    9.0759    0.2981    0.0000 C   0  0  0  0  0  0  0  0  0  0  0  0
    9.9420    0.7981    0.0000 C   0  0  0  0  0  0  0  0  0  0  0  0
   10.8080    0.2981    0.0000 C   0  0  0  0  0  0  0  0  0  0  0  0
    9.0759   -0.7019    0.0000 C   0  0  0  0  0  0  0  0  0  0  0  0
    9.9420   -1.2020    0.0000 C   0  0  0  0  0  0  0  0  0  0  0  0
   10.8080   -0.7019    0.0000 C   0  0  0  0  0  0  0  0  0  0  0  0
    9.7327    1.7699    0.0000 C   0  0  0  0  0  0  0  0  0  0  0  0
    8.7440    1.8729    0.0000 C   0  0  0  0  0  0  0  0  0  0  0  0
   11.7542    0.6028    0.0000 C   0  0  0  0  0  0  0  0  0  0  0  0
    7.3604    0.7589    0.0000 C   0  0  0  0  0  0  0  0  0  0  0  0
    9.7327   -2.1738    0.0000 C   0  0  0  0  0  0  0  0  0  0  0  0
    3.3999    2.5794    0.0000 C   0  0  3  0  0  0  0  0  0  0  0  0
    8.7440   -2.2768    0.0000 C   0  0  0  0  0  0  0  0  0  0  0  0
   11.7542   -1.0067    0.0000 C   0  0  0  0  0  0  0  0  0  0  0  0
    3.6095    3.5572    0.0000 C   0  0  0  0  0  0  0  0  0  0  0  0
    6.6926    1.5032    0.0000 C   0  0  0  0  0  0  0  0  0  0  0  0
    4.0677    1.8351    0.0000 C   0  0  0  0  0  0  0  0  0  0  0  0
    2.4052    2.4766    0.0000 C   0  0  0  0  0  0  0  0  0  0  0  0
   10.3535    2.5986    0.0000 C   0  0  0  0  0  0  0  0  0  0  0  0
    8.3075    2.8119    0.0000 C   0  0  0  0  0  0  0  0  0  0  0  0
    2.7443    4.0587    0.0000 C   0  0  0  0  0  0  0  0  0  0  0  0
   10.3535   -3.0025    0.0000 C   0  0  0  0  0  0  0  0  0  0  0  0
    5.7140    1.2970    0.0000 C   0  0  0  0  0  0  0  0  0  0  0  0
    8.3075   -3.2158    0.0000 C   0  0  0  0  0  0  0  0  0  0  0  0
    9.9388    3.5474    0.0000 C   0  0  0  0  0  0  0  0  0  0  0  0
    8.9089    3.6548    0.0000 C   0  0  0  0  0  0  0  0  0  0  0  0
    9.9388   -3.9513    0.0000 C   0  0  0  0  0  0  0  0  0  0  0  0
    8.9089   -4.0587    0.0000 C   0  0  0  0  0  0  0  0  0  0  0  0
   12.2916    0.9120    0.0000 H   0  0  0  0  0  0  0  0  0  0  0  0
   11.5032    1.1697    0.0000 H   0  0  0  0  0  0  0  0  0  0  0  0
    6.8340    0.4313    0.0000 H   0  0  0  0  0  0  0  0  0  0  0  0
    7.5917    0.1837    0.0000 H   0  0  0  0  0  0  0  0  0  0  0  0
    3.9990    2.7388    0.0000 H   0  0  0  0  0  0  0  0  0  0  0  0
    7.7322   -1.2412    0.0000 H   0  0  0  0  0  0  0  0  0  0  0  0
    4.1988    3.3646    0.0000 H   0  0  0  0  0  0  0  0  0  0  0  0
    3.8626    4.1231    0.0000 H   0  0  0  0  0  0  0  0  0  0  0  0
   12.9578   -0.2019    0.0000 H   0  0  0  0  0  0  0  0  0  0  0  0
    7.2189    1.8309    0.0000 H   0  0  0  0  0  0  0  0  0  0  0  0
    6.4613    2.0785    0.0000 H   0  0  0  0  0  0  0  0  0  0  0  0
    3.5413    1.5074    0.0000 H   0  0  0  0  0  0  0  0  0  0  0  0
    4.2990    1.2598    0.0000 H   0  0  0  0  0  0  0  0  0  0  0  0
    1.8152    2.2860    0.0000 H   0  0  0  0  0  0  0  0  0  0  0  0
    2.5330    1.8699    0.0000 H   0  0  0  0  0  0  0  0  0  0  0  0
   10.9694    2.5272    0.0000 H   0  0  0  0  0  0  0  0  0  0  0  0
    7.6902    2.8690    0.0000 H   0  0  0  0  0  0  0  0  0  0  0  0
    3.1096    4.5596    0.0000 H   0  0  0  0  0  0  0  0  0  0  0  0
    2.2843    4.4743    0.0000 H   0  0  0  0  0  0  0  0  0  0  0  0
   10.9694   -2.9311    0.0000 H   0  0  0  0  0  0  0  0  0  0  0  0
    5.2388    2.6306    0.0000 H   0  0  0  0  0  0  0  0  0  0  0  0
    7.6902   -3.2729    0.0000 H   0  0  0  0  0  0  0  0  0  0  0  0
   10.3047    4.0479    0.0000 H   0  0  0  0  0  0  0  0  0  0  0  0
    8.6541    4.2200    0.0000 H   0  0  0  0  0  0  0  0  0  0  0  0
   10.3047   -4.4518    0.0000 H   0  0  0  0  0  0  0  0  0  0  0  0
    8.6541   -4.6239    0.0000 H   0  0  0  0  0  0  0  0  0  0  0  0
  1 25  1  0  0  0  0
  1 28  1  0  0  0  0
  2 21  2  0  0  0  0
  3 30  2  0  0  0  0
  4  8  1  0  0  0  0
  4 15  1  0  0  0  0
  4 17  1  0  0  0  0
  5 11  1  0  0  0  0
  5 20  1  0  0  0  0
  5 41  1  0  0  0  0
  6 16  1  0  0  0  0
  6 21  1  0  0  0  0
  6 44  1  0  0  0  0
  7 24  1  0  0  0  0
  7 30  1  0  0  0  0
  7 56  1  0  0  0  0
  8  9  1  0  0  0  0
  8 11  2  0  0  0  0
  9 10  2  0  0  0  0
  9 14  1  0  0  0  0
 10 13  1  0  0  0  0
 10 16  1  0  0  0  0
 11 12  1  0  0  0  0
 12 13  2  0  0  0  0
 12 18  1  0  0  0  0
 13 21  1  0  0  0  0
 14 15  1  0  0  0  0
 14 26  2  0  0  0  0
 15 27  2  0  0  0  0
 16 36  1  0  0  0  0
 16 37  1  0  0  0  0
 17 23  1  0  0  0  0
 17 38  1  0  0  0  0
 17 39  1  0  0  0  0
 18 20  1  0  0  0  0
 18 29  2  0  0  0  0
 19 22  1  0  0  0  0
 19 24  1  0  0  0  0
 19 25  1  0  0  0  0
 19 40  1  0  0  0  0
 20 31  2  0  0  0  0
 22 28  1  0  0  0  0
 22 42  1  0  0  0  0
 22 43  1  0  0  0  0
 23 30  1  0  0  0  0
 23 45  1  0  0  0  0
 23 46  1  0  0  0  0
 24 47  1  0  0  0  0
 24 48  1  0  0  0  0
 25 49  1  0  0  0  0
 25 50  1  0  0  0  0
 26 32  1  0  0  0  0
 26 51  1  0  0  0  0
 27 33  1  0  0  0  0
 27 52  1  0  0  0  0
 28 53  1  0  0  0  0
 28 54  1  0  0  0  0
 29 34  1  0  0  0  0
 29 55  1  0  0  0  0
 31 35  1  0  0  0  0
 31 57  1  0  0  0  0
 32 33  2  0  0  0  0
 32 58  1  0  0  0  0
 33 59  1  0  0  0  0
 34 35  2  0  0  0  0
 34 60  1  0  0  0  0
 35 61  1  0  0  0  0
M  END
> <PUBCHEM_COMPOUND_CID>
44329007

> <PUBCHEM_COMPOUND_CANONICALIZED>
1

> <PUBCHEM_CACTVS_COMPLEXITY>
837

> <PUBCHEM_CACTVS_HBOND_ACCEPTOR>
3

> <PUBCHEM_CACTVS_HBOND_DONOR>
3

> <PUBCHEM_CACTVS_ROTATABLE_BOND>
5

> <PUBCHEM_CACTVS_SUBSKEYS>
AAADceB7sAAAAAAAAAAAAAAAAAAAAWLFiQAwYMAAAAAAAFgB/gAAHgAQAAAADQjhngYwwPPNlACoAyVyVACCgCQlEiAI2aE4dNgIYPrA1ZGWIQhmlgDIyQc8icCeyAACQAASACCQAASAACQAQAAAAAAAAA==

> <PUBCHEM_IUPAC_OPENEYE_NAME>
3-(14-oxo-3,13,23-triazahexacyclo[14.7.0.02,10.04,9.011,15.017,22]tricosa-1,4,6,8,10,15,17,19,21-nonaen-3-yl)-N-(tetrahydrofuran-3-ylmethyl)propanamide

> <PUBCHEM_IUPAC_CAS_NAME>
N-(3-oxolanylmethyl)-3-(14-oxo-3,13,23-triazahexacyclo[14.7.0.02,10.04,9.011,15.017,22]tricosa-1,4,6,8,10,15,17,19,21-nonaen-3-yl)propanamide

> <PUBCHEM_IUPAC_NAME_MARKUP>
<I>N</I>-(oxolan-3-ylmethyl)-3-(14-oxo-3,13,23-triazahexacyclo[14.7.0.0<SUP>2,10</SUP>.0<SUP>4,9</SUP>.0<SUP>11,15</SUP>.0<SUP>17,22</SUP>]tricosa-1,4,6,8,10,15,17,19,21-nonaen-3-yl)propanamide

> <PUBCHEM_IUPAC_NAME>
N-(oxolan-3-ylmethyl)-3-(14-oxo-3,13,23-triazahexacyclo[14.7.0.02,10.04,9.011,15.017,22]tricosa-1,4,6,8,10,15,17,19,21-nonaen-3-yl)propanamide

> <PUBCHEM_IUPAC_SYSTEMATIC_NAME>
3-(14-oxidanylidene-3,13,23-triazahexacyclo[14.7.0.02,10.04,9.011,15.017,22]tricosa-1,4,6,8,10,15,17,19,21-nonaen-3-yl)-N-(oxolan-3-ylmethyl)propanamide

> <PUBCHEM_IUPAC_TRADITIONAL_NAME>
3-(14-keto-3,13,23-triazahexacyclo[14.7.0.02,10.04,9.011,15.017,22]tricosa-1,4,6,8,10,15,17,19,21-nonaen-3-yl)-N-(tetrahydrofuran-3-ylmethyl)propionamide

> <PUBCHEM_IUPAC_INCHI>
InChI=1S/C28H26N4O3/c33-22(29-13-16-10-12-35-15-16)9-11-32-21-8-4-2-6-18(21)23-19-14-30-28(34)25(19)24-17-5-1-3-7-20(17)31-26(24)27(23)32/h1-8,16,31H,9-15H2,(H,29,33)(H,30,34)

> <PUBCHEM_IUPAC_INCHIKEY>
NEGCBIBMPAHBIM-UHFFFAOYSA-N

> <PUBCHEM_XLOGP3_AA>
3.1

> <PUBCHEM_EXACT_MASS>
466.20049070

> <PUBCHEM_MOLECULAR_FORMULA>
C28H26N4O3

> <PUBCHEM_MOLECULAR_WEIGHT>
466.5

> <PUBCHEM_SMILES>
C1COCC1CNC(=O)CCN2C3=CC=CC=C3C4=C5CNC(=O)C5=C6C7=CC=CC=C7NC6=C42

> <PUBCHEM_OPENEYE_CAN_SMILES>
C1COCC1CNC(=O)CCN2C3=CC=CC=C3C4=C5CNC(=O)C5=C6C7=CC=CC=C7NC6=C42

> <PUBCHEM_OPENEYE_ISO_SMILES>
C1COCC1CNC(=O)CCN2C3=CC=CC=C3C4=C5CNC(=O)C5=C6C7=CC=CC=C7NC6=C42

> <PUBCHEM_CACTVS_TPSA>
88.2

> <PUBCHEM_MONOISOTOPIC_WEIGHT>
466.20049070

> <PUBCHEM_TOTAL_CHARGE>
0

> <PUBCHEM_HEAVY_ATOM_COUNT>
35

> <PUBCHEM_ATOM_DEF_STEREO_COUNT>
0

> <PUBCHEM_ATOM_UDEF_STEREO_COUNT>
1

> <PUBCHEM_BOND_DEF_STEREO_COUNT>
0

> <PUBCHEM_BOND_UDEF_STEREO_COUNT>
0

> <PUBCHEM_ISOTOPIC_ATOM_COUNT>
0

> <PUBCHEM_COMPONENT_COUNT>
1

> <PUBCHEM_CACTVS_TAUTO_COUNT>
-1

> <PUBCHEM_COORDINATE_TYPE>
1
5
255

> <PUBCHEM_BONDANNOTATIONS>
10  13  8
11  12  8
12  13  8
12  18  8
14  15  8
14  26  8
15  27  8
18  20  8
18  29  8
19  24  3
20  31  8
26  32  8
27  33  8
29  34  8
31  35  8
32  33  8
34  35  8
4  15  8
4  8  8
5  11  8
5  20  8
8  11  8
8  9  8
9  10  8
9  14  8

$$$$
