10255238
  -OEChem-03202505272D

 66 72  0     0  0  0  0  0  0999 V2000
   13.6005   -1.7552    0.0000 O   0  0  0  0  0  0  0  0  0  0  0  0
    2.0000    2.1627    0.0000 O   0  0  0  0  0  0  0  0  0  0  0  0
    6.9390    0.5484    0.0000 O   0  0  0  0  0  0  0  0  0  0  0  0
    9.8746    1.1671    0.0000 N   0  0  0  0  0  0  0  0  0  0  0  0
    9.8746   -1.1671    0.0000 N   0  0  0  0  0  0  0  0  0  0  0  0
   13.8735    0.0000    0.0000 N   0  0  0  0  0  0  0  0  0  0  0  0
    3.9570    2.5751    0.0000 N   0  0  0  0  0  0  0  0  0  0  0  0
    6.5819    2.2433    0.0000 N   0  0  0  0  0  0  0  0  0  0  0  0
   10.6116    0.5000    0.0000 C   0  0  0  0  0  0  0  0  0  0  0  0
   11.4776    1.0000    0.0000 C   0  0  0  0  0  0  0  0  0  0  0  0
   12.3436    0.5000    0.0000 C   0  0  0  0  0  0  0  0  0  0  0  0
   10.6116   -0.5000    0.0000 C   0  0  0  0  0  0  0  0  0  0  0  0
   11.4776   -1.0000    0.0000 C   0  0  0  0  0  0  0  0  0  0  0  0
   12.3436   -0.5000    0.0000 C   0  0  0  0  0  0  0  0  0  0  0  0
   11.2684    1.9718    0.0000 C   0  0  0  0  0  0  0  0  0  0  0  0
   10.2797    2.0749    0.0000 C   0  0  0  0  0  0  0  0  0  0  0  0
   13.2899    0.8047    0.0000 C   0  0  0  0  0  0  0  0  0  0  0  0
   11.2684   -1.9718    0.0000 C   0  0  0  0  0  0  0  0  0  0  0  0
    8.8961    0.9609    0.0000 C   0  0  0  0  0  0  0  0  0  0  0  0
   10.2797   -2.0749    0.0000 C   0  0  0  0  0  0  0  0  0  0  0  0
   13.2899   -0.8047    0.0000 C   0  0  0  0  0  0  0  0  0  0  0  0
   11.8892    2.8006    0.0000 C   0  0  0  0  0  0  0  0  0  0  0  0
    8.2282    1.7052    0.0000 C   0  0  0  0  0  0  0  0  0  0  0  0
    9.8432    3.0138    0.0000 C   0  0  0  0  0  0  0  0  0  0  0  0
   11.8892   -2.8006    0.0000 C   0  0  0  0  0  0  0  0  0  0  0  0
    9.8432   -3.0138    0.0000 C   0  0  0  0  0  0  0  0  0  0  0  0
   11.4745    3.7494    0.0000 C   0  0  0  0  0  0  0  0  0  0  0  0
   10.4446    3.8567    0.0000 C   0  0  0  0  0  0  0  0  0  0  0  0
    7.2497    1.4990    0.0000 C   0  0  0  0  0  0  0  0  0  0  0  0
    4.9355    2.7813    0.0000 C   0  0  0  0  0  0  0  0  0  0  0  0
   11.4745   -3.7494    0.0000 C   0  0  0  0  0  0  0  0  0  0  0  0
   10.4446   -3.8567    0.0000 C   0  0  0  0  0  0  0  0  0  0  0  0
    5.6034    2.0370    0.0000 C   0  0  0  0  0  0  0  0  0  0  0  0
    3.6464    1.6246    0.0000 C   0  0  0  0  0  0  0  0  0  0  0  0
    3.2892    3.3194    0.0000 C   0  0  0  0  0  0  0  0  0  0  0  0
    2.6678    1.4184    0.0000 C   0  0  0  0  0  0  0  0  0  0  0  0
    2.3107    3.1132    0.0000 C   0  0  0  0  0  0  0  0  0  0  0  0
   13.8272    1.1140    0.0000 H   0  0  0  0  0  0  0  0  0  0  0  0
   13.0388    1.3716    0.0000 H   0  0  0  0  0  0  0  0  0  0  0  0
    8.3697    0.6332    0.0000 H   0  0  0  0  0  0  0  0  0  0  0  0
    9.1273    0.3856    0.0000 H   0  0  0  0  0  0  0  0  0  0  0  0
    9.2679   -1.0392    0.0000 H   0  0  0  0  0  0  0  0  0  0  0  0
   14.4935    0.0000    0.0000 H   0  0  0  0  0  0  0  0  0  0  0  0
   12.5050    2.7292    0.0000 H   0  0  0  0  0  0  0  0  0  0  0  0
    8.7546    2.0328    0.0000 H   0  0  0  0  0  0  0  0  0  0  0  0
    7.9970    2.2804    0.0000 H   0  0  0  0  0  0  0  0  0  0  0  0
    9.2258    3.0710    0.0000 H   0  0  0  0  0  0  0  0  0  0  0  0
   12.5050   -2.7292    0.0000 H   0  0  0  0  0  0  0  0  0  0  0  0
    9.2258   -3.0710    0.0000 H   0  0  0  0  0  0  0  0  0  0  0  0
   11.8404    4.2499    0.0000 H   0  0  0  0  0  0  0  0  0  0  0  0
   10.1898    4.4219    0.0000 H   0  0  0  0  0  0  0  0  0  0  0  0
    5.4619    3.1090    0.0000 H   0  0  0  0  0  0  0  0  0  0  0  0
    4.7043    3.3566    0.0000 H   0  0  0  0  0  0  0  0  0  0  0  0
   11.8404   -4.2499    0.0000 H   0  0  0  0  0  0  0  0  0  0  0  0
    3.6669    1.0049    0.0000 H   0  0  0  0  0  0  0  0  0  0  0  0
    4.2602    1.5372    0.0000 H   0  0  0  0  0  0  0  0  0  0  0  0
    3.8155    3.6471    0.0000 H   0  0  0  0  0  0  0  0  0  0  0  0
    3.0579    3.8947    0.0000 H   0  0  0  0  0  0  0  0  0  0  0  0
   10.1898   -4.4219    0.0000 H   0  0  0  0  0  0  0  0  0  0  0  0
    5.0770    1.7094    0.0000 H   0  0  0  0  0  0  0  0  0  0  0  0
    5.8346    1.4618    0.0000 H   0  0  0  0  0  0  0  0  0  0  0  0
    6.7745    2.8326    0.0000 H   0  0  0  0  0  0  0  0  0  0  0  0
    2.1415    1.0907    0.0000 H   0  0  0  0  0  0  0  0  0  0  0  0
    2.8991    0.8431    0.0000 H   0  0  0  0  0  0  0  0  0  0  0  0
    2.2901    3.7329    0.0000 H   0  0  0  0  0  0  0  0  0  0  0  0
    1.6968    3.2005    0.0000 H   0  0  0  0  0  0  0  0  0  0  0  0
  1 21  2  0  0  0  0
  2 36  1  0  0  0  0
  2 37  1  0  0  0  0
  3 29  2  0  0  0  0
  4  9  1  0  0  0  0
  4 16  1  0  0  0  0
  4 19  1  0  0  0  0
  5 12  1  0  0  0  0
  5 20  1  0  0  0  0
  5 42  1  0  0  0  0
  6 17  1  0  0  0  0
  6 21  1  0  0  0  0
  6 43  1  0  0  0  0
  7 30  1  0  0  0  0
  7 34  1  0  0  0  0
  7 35  1  0  0  0  0
  8 29  1  0  0  0  0
  8 33  1  0  0  0  0
  8 62  1  0  0  0  0
  9 10  1  0  0  0  0
  9 12  2  0  0  0  0
 10 11  2  0  0  0  0
 10 15  1  0  0  0  0
 11 14  1  0  0  0  0
 11 17  1  0  0  0  0
 12 13  1  0  0  0  0
 13 14  2  0  0  0  0
 13 18  1  0  0  0  0
 14 21  1  0  0  0  0
 15 16  1  0  0  0  0
 15 22  2  0  0  0  0
 16 24  2  0  0  0  0
 17 38  1  0  0  0  0
 17 39  1  0  0  0  0
 18 20  1  0  0  0  0
 18 25  2  0  0  0  0
 19 23  1  0  0  0  0
 19 40  1  0  0  0  0
 19 41  1  0  0  0  0
 20 26  2  0  0  0  0
 22 27  1  0  0  0  0
 22 44  1  0  0  0  0
 23 29  1  0  0  0  0
 23 45  1  0  0  0  0
 23 46  1  0  0  0  0
 24 28  1  0  0  0  0
 24 47  1  0  0  0  0
 25 31  1  0  0  0  0
 25 48  1  0  0  0  0
 26 32  1  0  0  0  0
 26 49  1  0  0  0  0
 27 28  2  0  0  0  0
 27 50  1  0  0  0  0
 28 51  1  0  0  0  0
 30 33  1  0  0  0  0
 30 52  1  0  0  0  0
 30 53  1  0  0  0  0
 31 32  2  0  0  0  0
 31 54  1  0  0  0  0
 32 59  1  0  0  0  0
 33 60  1  0  0  0  0
 33 61  1  0  0  0  0
 34 36  1  0  0  0  0
 34 55  1  0  0  0  0
 34 56  1  0  0  0  0
 35 37  1  0  0  0  0
 35 57  1  0  0  0  0
 35 58  1  0  0  0  0
 36 63  1  0  0  0  0
 36 64  1  0  0  0  0
 37 65  1  0  0  0  0
 37 66  1  0  0  0  0
M  END
> <PUBCHEM_COMPOUND_CID>
10255238

> <PUBCHEM_COMPOUND_CANONICALIZED>
1

> <PUBCHEM_CACTVS_COMPLEXITY>
864

> <PUBCHEM_CACTVS_HBOND_ACCEPTOR>
4

> <PUBCHEM_CACTVS_HBOND_DONOR>
3

> <PUBCHEM_CACTVS_ROTATABLE_BOND>
6

> <PUBCHEM_CACTVS_SUBSKEYS>
AAADceB7sAAAAAAAAAAAAAAAAAAAAWLFgAA8YMEAAAAAAFgB/gAAHgAQAAAADAjhngYwwPPNlACoAyVyVACCgCQlEiAI2aE4dNgKYPrA1ZGXIQhglgDYyQccicCeyAACQAASACCQAASAACQAQAAAAAAAAA==

> <PUBCHEM_IUPAC_OPENEYE_NAME>
N-(2-morpholinoethyl)-3-(14-oxo-3,13,23-triazahexacyclo[14.7.0.02,10.04,9.011,15.017,22]tricosa-1,4,6,8,10,15,17,19,21-nonaen-3-yl)propanamide

> <PUBCHEM_IUPAC_CAS_NAME>
N-[2-(4-morpholinyl)ethyl]-3-(14-oxo-3,13,23-triazahexacyclo[14.7.0.02,10.04,9.011,15.017,22]tricosa-1,4,6,8,10,15,17,19,21-nonaen-3-yl)propanamide

> <PUBCHEM_IUPAC_NAME_MARKUP>
<I>N</I>-(2-morpholin-4-ylethyl)-3-(14-oxo-3,13,23-triazahexacyclo[14.7.0.0<SUP>2,10</SUP>.0<SUP>4,9</SUP>.0<SUP>11,15</SUP>.0<SUP>17,22</SUP>]tricosa-1,4,6,8,10,15,17,19,21-nonaen-3-yl)propanamide

> <PUBCHEM_IUPAC_NAME>
N-(2-morpholin-4-ylethyl)-3-(14-oxo-3,13,23-triazahexacyclo[14.7.0.02,10.04,9.011,15.017,22]tricosa-1,4,6,8,10,15,17,19,21-nonaen-3-yl)propanamide

> <PUBCHEM_IUPAC_SYSTEMATIC_NAME>
N-(2-morpholin-4-ylethyl)-3-(14-oxidanylidene-3,13,23-triazahexacyclo[14.7.0.02,10.04,9.011,15.017,22]tricosa-1,4,6,8,10,15,17,19,21-nonaen-3-yl)propanamide

> <PUBCHEM_IUPAC_TRADITIONAL_NAME>
3-(14-keto-3,13,23-triazahexacyclo[14.7.0.02,10.04,9.011,15.017,22]tricosa-1,4,6,8,10,15,17,19,21-nonaen-3-yl)-N-(2-morpholinoethyl)propionamide

> <PUBCHEM_IUPAC_INCHI>
InChI=1S/C29H29N5O3/c35-23(30-10-12-33-13-15-37-16-14-33)9-11-34-22-8-4-2-6-19(22)24-20-17-31-29(36)26(20)25-18-5-1-3-7-21(18)32-27(25)28(24)34/h1-8,32H,9-17H2,(H,30,35)(H,31,36)

> <PUBCHEM_IUPAC_INCHIKEY>
GHRBXKFGXPOEGA-UHFFFAOYSA-N

> <PUBCHEM_XLOGP3_AA>
2.5

> <PUBCHEM_EXACT_MASS>
495.22703980

> <PUBCHEM_MOLECULAR_FORMULA>
C29H29N5O3

> <PUBCHEM_MOLECULAR_WEIGHT>
495.6

> <PUBCHEM_SMILES>
C1COCCN1CCNC(=O)CCN2C3=CC=CC=C3C4=C5CNC(=O)C5=C6C7=CC=CC=C7NC6=C42

> <PUBCHEM_OPENEYE_CAN_SMILES>
C1COCCN1CCNC(=O)CCN2C3=CC=CC=C3C4=C5CNC(=O)C5=C6C7=CC=CC=C7NC6=C42

> <PUBCHEM_OPENEYE_ISO_SMILES>
C1COCCN1CCNC(=O)CCN2C3=CC=CC=C3C4=C5CNC(=O)C5=C6C7=CC=CC=C7NC6=C42

> <PUBCHEM_CACTVS_TPSA>
91.4

> <PUBCHEM_MONOISOTOPIC_WEIGHT>
495.22703980

> <PUBCHEM_TOTAL_CHARGE>
0

> <PUBCHEM_HEAVY_ATOM_COUNT>
37

> <PUBCHEM_ATOM_DEF_STEREO_COUNT>
0

> <PUBCHEM_ATOM_UDEF_STEREO_COUNT>
0

> <PUBCHEM_BOND_DEF_STEREO_COUNT>
0

> <PUBCHEM_BOND_UDEF_STEREO_COUNT>
0

> <PUBCHEM_ISOTOPIC_ATOM_COUNT>
0

> <PUBCHEM_COMPONENT_COUNT>
1

> <PUBCHEM_CACTVS_TAUTO_COUNT>
-1

> <PUBCHEM_COORDINATE_TYPE>
1
5
255

> <PUBCHEM_BONDANNOTATIONS>
10  11  8
10  15  8
11  14  8
12  13  8
13  14  8
13  18  8
15  16  8
15  22  8
16  24  8
18  20  8
18  25  8
20  26  8
22  27  8
24  28  8
25  31  8
26  32  8
27  28  8
31  32  8
4  16  8
4  9  8
5  12  8
5  20  8
9  10  8
9  12  8

$$$$
