11565683
  -OEChem-03202504002D

 38 41  0     0  0  0  0  0  0999 V2000
    4.6783   -2.8236    0.0000 N   0  0  0  0  0  0  0  0  0  0  0  0
    7.2566    1.0994    0.0000 N   0  0  0  0  0  0  0  0  0  0  0  0
    2.8660   -3.0188    0.0000 N   0  0  0  0  0  0  0  0  0  0  0  0
    4.3211    0.4807    0.0000 N   0  0  0  0  0  0  0  0  0  0  0  0
    5.6103    1.6375    0.0000 N   0  0  0  0  0  0  0  0  0  0  0  0
    4.6783   -1.2141    0.0000 C   0  0  0  0  0  0  0  0  0  0  0  0
    3.7320   -1.5188    0.0000 C   0  0  0  0  0  0  0  0  0  0  0  0
    3.7320   -2.5188    0.0000 C   0  0  0  0  0  0  0  0  0  0  0  0
    4.9889   -0.2636    0.0000 C   0  0  0  0  0  0  0  0  0  0  0  0
    5.2619   -2.0188    0.0000 C   0  0  0  0  0  0  0  0  0  0  0  0
    5.9674   -0.0573    0.0000 C   0  0  0  0  0  0  0  0  0  0  0  0
    7.5673    2.0499    0.0000 C   0  0  0  0  0  0  0  0  0  0  0  0
    2.8660   -1.0188    0.0000 C   0  0  0  0  0  0  0  0  0  0  0  0
    6.2781    0.8932    0.0000 C   0  0  0  0  0  0  0  0  0  0  0  0
    8.5458    2.2561    0.0000 C   0  0  0  0  0  0  0  0  0  0  0  0
    2.0000   -1.5188    0.0000 C   0  0  0  0  0  0  0  0  0  0  0  0
    2.0000   -2.5188    0.0000 C   0  0  0  0  0  0  0  0  0  0  0  0
    8.8564    3.2066    0.0000 C   0  0  0  0  0  0  0  0  0  0  0  0
    9.2136    1.5118    0.0000 C   0  0  0  0  0  0  0  0  0  0  0  0
    4.6318    1.4313    0.0000 C   0  0  0  0  0  0  0  0  0  0  0  0
    9.8349    3.4129    0.0000 C   0  0  0  0  0  0  0  0  0  0  0  0
   10.1921    1.7180    0.0000 C   0  0  0  0  0  0  0  0  0  0  0  0
   10.5028    2.6686    0.0000 C   0  0  0  0  0  0  0  0  0  0  0  0
    5.8819   -2.0188    0.0000 H   0  0  0  0  0  0  0  0  0  0  0  0
    4.8709   -3.4129    0.0000 H   0  0  0  0  0  0  0  0  0  0  0  0
    7.5467    2.6696    0.0000 H   0  0  0  0  0  0  0  0  0  0  0  0
    6.9534    2.1373    0.0000 H   0  0  0  0  0  0  0  0  0  0  0  0
    6.3815   -0.5188    0.0000 H   0  0  0  0  0  0  0  0  0  0  0  0
    2.8660   -0.3988    0.0000 H   0  0  0  0  0  0  0  0  0  0  0  0
    7.6707    0.6379    0.0000 H   0  0  0  0  0  0  0  0  0  0  0  0
    1.4631   -1.2088    0.0000 H   0  0  0  0  0  0  0  0  0  0  0  0
    1.4631   -2.8288    0.0000 H   0  0  0  0  0  0  0  0  0  0  0  0
    8.4424    3.6681    0.0000 H   0  0  0  0  0  0  0  0  0  0  0  0
    9.0210    0.9225    0.0000 H   0  0  0  0  0  0  0  0  0  0  0  0
    4.2177    1.8927    0.0000 H   0  0  0  0  0  0  0  0  0  0  0  0
   10.0276    4.0022    0.0000 H   0  0  0  0  0  0  0  0  0  0  0  0
   10.6062    1.2566    0.0000 H   0  0  0  0  0  0  0  0  0  0  0  0
   11.1095    2.7964    0.0000 H   0  0  0  0  0  0  0  0  0  0  0  0
  1  8  1  0  0  0  0
  1 10  1  0  0  0  0
  1 25  1  0  0  0  0
  2 12  1  0  0  0  0
  2 14  1  0  0  0  0
  2 30  1  0  0  0  0
  3  8  1  0  0  0  0
  3 17  2  0  0  0  0
  4  9  1  0  0  0  0
  4 20  2  0  0  0  0
  5 14  2  0  0  0  0
  5 20  1  0  0  0  0
  6  7  1  0  0  0  0
  6  9  1  0  0  0  0
  6 10  2  0  0  0  0
  7  8  2  0  0  0  0
  7 13  1  0  0  0  0
  9 11  2  0  0  0  0
 10 24  1  0  0  0  0
 11 14  1  0  0  0  0
 11 28  1  0  0  0  0
 12 15  1  0  0  0  0
 12 26  1  0  0  0  0
 12 27  1  0  0  0  0
 13 16  2  0  0  0  0
 13 29  1  0  0  0  0
 15 18  2  0  0  0  0
 15 19  1  0  0  0  0
 16 17  1  0  0  0  0
 16 31  1  0  0  0  0
 17 32  1  0  0  0  0
 18 21  1  0  0  0  0
 18 33  1  0  0  0  0
 19 22  2  0  0  0  0
 19 34  1  0  0  0  0
 20 35  1  0  0  0  0
 21 23  2  0  0  0  0
 21 36  1  0  0  0  0
 22 23  1  0  0  0  0
 22 37  1  0  0  0  0
 23 38  1  0  0  0  0
M  END
> <PUBCHEM_COMPOUND_CID>
11565683

> <PUBCHEM_COMPOUND_CANONICALIZED>
1

> <PUBCHEM_CACTVS_COMPLEXITY>
370

> <PUBCHEM_CACTVS_HBOND_ACCEPTOR>
4

> <PUBCHEM_CACTVS_HBOND_DONOR>
2

> <PUBCHEM_CACTVS_ROTATABLE_BOND>
4

> <PUBCHEM_CACTVS_SUBSKEYS>
AAADccB7gAAAAAAAAAAAAAAAAAAAAWAAAAA8WIAAAAAAAFgB/gAAHAAQAAAADAjBHwQ9sN7JkACgAzZnZACCgCmxAqAJ2aA4ZJiIKOLA2dGEJAhokALIyCcQgIAOgAAAAAAAAAAAAAAAAAAAAAAAAAAAAA==

> <PUBCHEM_IUPAC_OPENEYE_NAME>
N-benzyl-6-(1H-pyrrolo[2,3-b]pyridin-3-yl)pyrimidin-4-amine

> <PUBCHEM_IUPAC_CAS_NAME>
N-(phenylmethyl)-6-(1H-pyrrolo[2,3-b]pyridin-3-yl)-4-pyrimidinamine

> <PUBCHEM_IUPAC_NAME_MARKUP>
<I>N</I>-benzyl-6-(1<I>H</I>-pyrrolo[2,3-b]pyridin-3-yl)pyrimidin-4-amine

> <PUBCHEM_IUPAC_NAME>
N-benzyl-6-(1H-pyrrolo[2,3-b]pyridin-3-yl)pyrimidin-4-amine

> <PUBCHEM_IUPAC_SYSTEMATIC_NAME>
N-(phenylmethyl)-6-(1H-pyrrolo[2,3-b]pyridin-3-yl)pyrimidin-4-amine

> <PUBCHEM_IUPAC_TRADITIONAL_NAME>
benzyl-[6-(1H-pyrrolo[2,3-b]pyridin-3-yl)pyrimidin-4-yl]amine

> <PUBCHEM_IUPAC_INCHI>
InChI=1S/C18H15N5/c1-2-5-13(6-3-1)10-20-17-9-16(22-12-23-17)15-11-21-18-14(15)7-4-8-19-18/h1-9,11-12H,10H2,(H,19,21)(H,20,22,23)

> <PUBCHEM_IUPAC_INCHIKEY>
FMPKTXNCNJCHCC-UHFFFAOYSA-N

> <PUBCHEM_XLOGP3_AA>
3.1

> <PUBCHEM_EXACT_MASS>
301.13274550

> <PUBCHEM_MOLECULAR_FORMULA>
C18H15N5

> <PUBCHEM_MOLECULAR_WEIGHT>
301.3

> <PUBCHEM_SMILES>
C1=CC=C(C=C1)CNC2=NC=NC(=C2)C3=CNC4=C3C=CC=N4

> <PUBCHEM_OPENEYE_CAN_SMILES>
C1=CC=C(C=C1)CNC2=NC=NC(=C2)C3=CNC4=C3C=CC=N4

> <PUBCHEM_OPENEYE_ISO_SMILES>
C1=CC=C(C=C1)CNC2=NC=NC(=C2)C3=CNC4=C3C=CC=N4

> <PUBCHEM_CACTVS_TPSA>
66.5

> <PUBCHEM_MONOISOTOPIC_WEIGHT>
301.13274550

> <PUBCHEM_TOTAL_CHARGE>
0

> <PUBCHEM_HEAVY_ATOM_COUNT>
23

> <PUBCHEM_ATOM_DEF_STEREO_COUNT>
0

> <PUBCHEM_ATOM_UDEF_STEREO_COUNT>
0

> <PUBCHEM_BOND_DEF_STEREO_COUNT>
0

> <PUBCHEM_BOND_UDEF_STEREO_COUNT>
0

> <PUBCHEM_ISOTOPIC_ATOM_COUNT>
0

> <PUBCHEM_COMPONENT_COUNT>
1

> <PUBCHEM_CACTVS_TAUTO_COUNT>
-1

> <PUBCHEM_COORDINATE_TYPE>
1
5
255

> <PUBCHEM_BONDANNOTATIONS>
1  10  8
1  8  8
11  14  8
13  16  8
15  18  8
15  19  8
16  17  8
18  21  8
19  22  8
21  23  8
22  23  8
3  17  8
3  8  8
4  20  8
4  9  8
5  14  8
5  20  8
6  10  8
6  7  8
7  13  8
7  8  8
9  11  8

$$$$
