21362741
  -OEChem-03202505262D

 25 27  0     0  0  0  0  0  0999 V2000
    6.6498    1.7193    0.0000 Cl  0  0  0  0  0  0  0  0  0  0  0  0
    7.3991   -1.7403    0.0000 Cl  0  0  0  0  0  0  0  0  0  0  0  0
    8.0321    0.2078    0.0000 O   0  0  0  0  0  0  0  0  0  0  0  0
    4.5274    1.1203    0.0000 N   0  0  0  0  0  0  0  0  0  0  0  0
    2.0000   -0.0039    0.0000 N   0  0  0  0  0  0  0  0  0  0  0  0
    5.0274   -0.4185    0.0000 C   0  0  0  0  0  0  0  0  0  0  0  0
    5.3364    0.5325    0.0000 C   0  0  0  0  0  0  0  0  0  0  0  0
    4.0274   -0.4185    0.0000 C   0  0  0  0  0  0  0  0  0  0  0  0
    3.7183    0.5325    0.0000 C   0  0  0  0  0  0  0  0  0  0  0  0
    5.7123   -1.2033    0.0000 C   0  0  0  0  0  0  0  0  0  0  0  0
    6.3518    0.7648    0.0000 C   0  0  0  0  0  0  0  0  0  0  0  0
    7.0547   -0.0039    0.0000 C   0  0  0  0  0  0  0  0  0  0  0  0
    3.3424   -1.2033    0.0000 C   0  0  0  0  0  0  0  0  0  0  0  0
    6.7328   -0.9946    0.0000 C   0  0  0  0  0  0  0  0  0  0  0  0
    2.7029    0.7648    0.0000 C   0  0  0  0  0  0  0  0  0  0  0  0
    2.3219   -0.9946    0.0000 C   0  0  0  0  0  0  0  0  0  0  0  0
    8.7040   -0.5328    0.0000 C   0  0  0  0  0  0  0  0  0  0  0  0
    4.5274    1.7403    0.0000 H   0  0  0  0  0  0  0  0  0  0  0  0
    5.5139   -1.7907    0.0000 H   0  0  0  0  0  0  0  0  0  0  0  0
    3.5408   -1.7907    0.0000 H   0  0  0  0  0  0  0  0  0  0  0  0
    2.5182    1.3566    0.0000 H   0  0  0  0  0  0  0  0  0  0  0  0
    1.9088   -1.4569    0.0000 H   0  0  0  0  0  0  0  0  0  0  0  0
    8.2449   -0.9494    0.0000 H   0  0  0  0  0  0  0  0  0  0  0  0
    9.1207   -0.9920    0.0000 H   0  0  0  0  0  0  0  0  0  0  0  0
    9.1632   -0.1162    0.0000 H   0  0  0  0  0  0  0  0  0  0  0  0
  1 11  1  0  0  0  0
  2 14  1  0  0  0  0
  3 12  1  0  0  0  0
  3 17  1  0  0  0  0
  4  7  1  0  0  0  0
  4  9  1  0  0  0  0
  4 18  1  0  0  0  0
  5 15  2  0  0  0  0
  5 16  1  0  0  0  0
  6  7  1  0  0  0  0
  6  8  1  0  0  0  0
  6 10  2  0  0  0  0
  7 11  2  0  0  0  0
  8  9  2  0  0  0  0
  8 13  1  0  0  0  0
  9 15  1  0  0  0  0
 10 14  1  0  0  0  0
 10 19  1  0  0  0  0
 11 12  1  0  0  0  0
 12 14  2  0  0  0  0
 13 16  2  0  0  0  0
 13 20  1  0  0  0  0
 15 21  1  0  0  0  0
 16 22  1  0  0  0  0
 17 23  1  0  0  0  0
 17 24  1  0  0  0  0
 17 25  1  0  0  0  0
M  END
> <PUBCHEM_COMPOUND_CID>
21362741

> <PUBCHEM_COMPOUND_CANONICALIZED>
1

> <PUBCHEM_CACTVS_COMPLEXITY>
292

> <PUBCHEM_CACTVS_HBOND_ACCEPTOR>
2

> <PUBCHEM_CACTVS_HBOND_DONOR>
1

> <PUBCHEM_CACTVS_ROTATABLE_BOND>
1

> <PUBCHEM_CACTVS_SUBSKEYS>
AAADccBzIAAGAAAAAAAAAAAAAAAAAWAAAAA8QAAAAAAAAFgB/gAAHgIQAAAADA7BniY+xvLJlACgAzRnRACCiCQxN2AI2SA8f5gMZuPFspvUMChm0BnI6AeQ0PMOoABAIgCCCBBAAIBEAQQQIAAAAAAAAA==

> <PUBCHEM_IUPAC_OPENEYE_NAME>
6,8-dichloro-7-methoxy-9H-pyrido[3,4-b]indole

> <PUBCHEM_IUPAC_CAS_NAME>
6,8-dichloro-7-methoxy-9H-pyrido[3,4-b]indole

> <PUBCHEM_IUPAC_NAME_MARKUP>
6,8-dichloro-7-methoxy-9<I>H</I>-pyrido[3,4-b]indole

> <PUBCHEM_IUPAC_NAME>
6,8-dichloro-7-methoxy-9H-pyrido[3,4-b]indole

> <PUBCHEM_IUPAC_SYSTEMATIC_NAME>
6,8-bis(chloranyl)-7-methoxy-9H-pyrido[3,4-b]indole

> <PUBCHEM_IUPAC_TRADITIONAL_NAME>
6,8-dichloro-7-methoxy-9H-beta-carboline

> <PUBCHEM_IUPAC_INCHI>
InChI=1S/C12H8Cl2N2O/c1-17-12-8(13)4-7-6-2-3-15-5-9(6)16-11(7)10(12)14/h2-5,16H,1H3

> <PUBCHEM_IUPAC_INCHIKEY>
QHCDWDRQLOZVDJ-UHFFFAOYSA-N

> <PUBCHEM_XLOGP3_AA>
3.5

> <PUBCHEM_EXACT_MASS>
266.0013683

> <PUBCHEM_MOLECULAR_FORMULA>
C12H8Cl2N2O

> <PUBCHEM_MOLECULAR_WEIGHT>
267.11

> <PUBCHEM_SMILES>
COC1=C(C=C2C3=C(C=NC=C3)NC2=C1Cl)Cl

> <PUBCHEM_OPENEYE_CAN_SMILES>
COC1=C(C=C2C3=C(C=NC=C3)NC2=C1Cl)Cl

> <PUBCHEM_OPENEYE_ISO_SMILES>
COC1=C(C=C2C3=C(C=NC=C3)NC2=C1Cl)Cl

> <PUBCHEM_CACTVS_TPSA>
37.9

> <PUBCHEM_MONOISOTOPIC_WEIGHT>
266.0013683

> <PUBCHEM_TOTAL_CHARGE>
0

> <PUBCHEM_HEAVY_ATOM_COUNT>
17

> <PUBCHEM_ATOM_DEF_STEREO_COUNT>
0

> <PUBCHEM_ATOM_UDEF_STEREO_COUNT>
0

> <PUBCHEM_BOND_DEF_STEREO_COUNT>
0

> <PUBCHEM_BOND_UDEF_STEREO_COUNT>
0

> <PUBCHEM_ISOTOPIC_ATOM_COUNT>
0

> <PUBCHEM_COMPONENT_COUNT>
1

> <PUBCHEM_CACTVS_TAUTO_COUNT>
-1

> <PUBCHEM_COORDINATE_TYPE>
1
5
255

> <PUBCHEM_BONDANNOTATIONS>
10  14  8
11  12  8
12  14  8
13  16  8
4  7  8
4  9  8
5  15  8
5  16  8
6  10  8
6  7  8
6  8  8
7  11  8
8  13  8
8  9  8
9  15  8

$$$$
