24905241
  -OEChem-03192523382D

 38 41  0     0  0  0  0  0  0999 V2000
    7.8271    3.6823    0.0000 O   0  0  0  0  0  0  0  0  0  0  0  0
    4.6783   -2.0961    0.0000 N   0  0  0  0  0  0  0  0  0  0  0  0
    5.2619   -1.2914    0.0000 N   0  0  0  0  0  0  0  0  0  0  0  0
    7.1859    2.0257    0.0000 N   0  0  0  0  0  0  0  0  0  0  0  0
    2.8660   -2.2914    0.0000 N   0  0  0  0  0  0  0  0  0  0  0  0
    6.1110    3.2237    0.0000 N   0  0  0  0  0  0  0  0  0  0  0  0
    2.0000   -0.7914    0.0000 N   0  0  0  0  0  0  0  0  0  0  0  0
    2.8660    0.7086    0.0000 N   0  0  0  0  0  0  0  0  0  0  0  0
    4.9889   -3.0466    0.0000 C   0  0  0  0  0  0  0  0  0  0  0  0
    4.6783   -0.4866    0.0000 C   0  0  0  0  0  0  0  0  0  0  0  0
    3.7320   -0.7914    0.0000 C   0  0  0  0  0  0  0  0  0  0  0  0
    3.7320   -1.7914    0.0000 C   0  0  0  0  0  0  0  0  0  0  0  0
    4.9889    0.4639    0.0000 C   0  0  0  0  0  0  0  0  0  0  0  0
    5.9674   -3.2528    0.0000 C   0  0  0  0  0  0  0  0  0  0  0  0
    4.3211   -3.7909    0.0000 C   0  0  0  0  0  0  0  0  0  0  0  0
    6.2781    1.6206    0.0000 C   0  0  0  0  0  0  0  0  0  0  0  0
    5.9674    0.6701    0.0000 C   0  0  0  0  0  0  0  0  0  0  0  0
    5.6103    2.3649    0.0000 C   0  0  0  0  0  0  0  0  0  0  0  0
    4.3211    1.2082    0.0000 C   0  0  0  0  0  0  0  0  0  0  0  0
    2.8660   -0.2914    0.0000 C   0  0  0  0  0  0  0  0  0  0  0  0
    4.6318    2.1587    0.0000 C   0  0  0  0  0  0  0  0  0  0  0  0
    7.0828    3.0145    0.0000 C   0  0  0  0  0  0  0  0  0  0  0  0
    2.0000   -1.7914    0.0000 C   0  0  0  0  0  0  0  0  0  0  0  0
    5.1815   -3.6360    0.0000 H   0  0  0  0  0  0  0  0  0  0  0  0
    5.8396   -3.8595    0.0000 H   0  0  0  0  0  0  0  0  0  0  0  0
    6.5741   -3.3807    0.0000 H   0  0  0  0  0  0  0  0  0  0  0  0
    6.0953   -2.6462    0.0000 H   0  0  0  0  0  0  0  0  0  0  0  0
    3.8596   -3.3769    0.0000 H   0  0  0  0  0  0  0  0  0  0  0  0
    3.9070   -4.2524    0.0000 H   0  0  0  0  0  0  0  0  0  0  0  0
    4.7826   -4.2050    0.0000 H   0  0  0  0  0  0  0  0  0  0  0  0
    6.3815    0.2086    0.0000 H   0  0  0  0  0  0  0  0  0  0  0  0
    3.7144    1.0803    0.0000 H   0  0  0  0  0  0  0  0  0  0  0  0
    4.2177    2.6202    0.0000 H   0  0  0  0  0  0  0  0  0  0  0  0
    7.7228    1.7157    0.0000 H   0  0  0  0  0  0  0  0  0  0  0  0
    5.8608    3.7909    0.0000 H   0  0  0  0  0  0  0  0  0  0  0  0
    1.4631   -2.1014    0.0000 H   0  0  0  0  0  0  0  0  0  0  0  0
    2.3291    1.0186    0.0000 H   0  0  0  0  0  0  0  0  0  0  0  0
    3.4030    1.0186    0.0000 H   0  0  0  0  0  0  0  0  0  0  0  0
  1 22  2  0  0  0  0
  2  3  1  0  0  0  0
  2  9  1  0  0  0  0
  2 12  1  0  0  0  0
  3 10  2  0  0  0  0
  4 16  1  0  0  0  0
  4 22  1  0  0  0  0
  4 34  1  0  0  0  0
  5 12  2  0  0  0  0
  5 23  1  0  0  0  0
  6 18  1  0  0  0  0
  6 22  1  0  0  0  0
  6 35  1  0  0  0  0
  7 20  1  0  0  0  0
  7 23  2  0  0  0  0
  8 20  1  0  0  0  0
  8 37  1  0  0  0  0
  8 38  1  0  0  0  0
  9 14  1  0  0  0  0
  9 15  1  0  0  0  0
  9 24  1  0  0  0  0
 10 11  1  0  0  0  0
 10 13  1  0  0  0  0
 11 12  1  0  0  0  0
 11 20  2  0  0  0  0
 13 17  2  0  0  0  0
 13 19  1  0  0  0  0
 14 25  1  0  0  0  0
 14 26  1  0  0  0  0
 14 27  1  0  0  0  0
 15 28  1  0  0  0  0
 15 29  1  0  0  0  0
 15 30  1  0  0  0  0
 16 17  1  0  0  0  0
 16 18  2  0  0  0  0
 17 31  1  0  0  0  0
 18 21  1  0  0  0  0
 19 21  2  0  0  0  0
 19 32  1  0  0  0  0
 21 33  1  0  0  0  0
 23 36  1  0  0  0  0
M  END
> <PUBCHEM_COMPOUND_CID>
24905241

> <PUBCHEM_COMPOUND_CANONICALIZED>
1

> <PUBCHEM_CACTVS_COMPLEXITY>
473

> <PUBCHEM_CACTVS_HBOND_ACCEPTOR>
5

> <PUBCHEM_CACTVS_HBOND_DONOR>
3

> <PUBCHEM_CACTVS_ROTATABLE_BOND>
2

> <PUBCHEM_CACTVS_SUBSKEYS>
AAADccBzoAAAAAAAAAAAAAAAAAAAAWLAAAA8QAAAAAAAAFgB/AAAHgAYAAAADCjBHwQ38N7IEACqAyZjdACShCsxgqAd2CAodJiIaKLA2dGUpAhonALIyCcQgMAOCAAAQAAAACAQAACAAAAAQAAAAAAAAA==

> <PUBCHEM_IUPAC_OPENEYE_NAME>
5-(4-amino-1-isopropyl-pyrazolo[3,4-d]pyrimidin-3-yl)-1,3-dihydrobenzimidazol-2-one

> <PUBCHEM_IUPAC_CAS_NAME>
5-(4-amino-1-propan-2-yl-3-pyrazolo[3,4-d]pyrimidinyl)-1,3-dihydrobenzimidazol-2-one

> <PUBCHEM_IUPAC_NAME_MARKUP>
5-(4-amino-1-propan-2-ylpyrazolo[3,4-d]pyrimidin-3-yl)-1,3-dihydrobenzimidazol-2-one

> <PUBCHEM_IUPAC_NAME>
5-(4-amino-1-propan-2-ylpyrazolo[3,4-d]pyrimidin-3-yl)-1,3-dihydrobenzimidazol-2-one

> <PUBCHEM_IUPAC_SYSTEMATIC_NAME>
5-(4-azanyl-1-propan-2-yl-pyrazolo[3,4-d]pyrimidin-3-yl)-1,3-dihydrobenzimidazol-2-one

> <PUBCHEM_IUPAC_TRADITIONAL_NAME>
5-(4-amino-1-isopropyl-pyrazolo[3,4-d]pyrimidin-3-yl)-1,3-dihydrobenzimidazol-2-one

> <PUBCHEM_IUPAC_INCHI>
InChI=1S/C15H15N7O/c1-7(2)22-14-11(13(16)17-6-18-14)12(21-22)8-3-4-9-10(5-8)20-15(23)19-9/h3-7H,1-2H3,(H2,16,17,18)(H2,19,20,23)

> <PUBCHEM_IUPAC_INCHIKEY>
DUQGHTXMYYQABR-UHFFFAOYSA-N

> <PUBCHEM_XLOGP3_AA>
0.8

> <PUBCHEM_EXACT_MASS>
309.13380813

> <PUBCHEM_MOLECULAR_FORMULA>
C15H15N7O

> <PUBCHEM_MOLECULAR_WEIGHT>
309.33

> <PUBCHEM_SMILES>
CC(C)N1C2=NC=NC(=C2C(=N1)C3=CC4=C(C=C3)NC(=O)N4)N

> <PUBCHEM_OPENEYE_CAN_SMILES>
CC(C)N1C2=NC=NC(=C2C(=N1)C3=CC4=C(C=C3)NC(=O)N4)N

> <PUBCHEM_OPENEYE_ISO_SMILES>
CC(C)N1C2=NC=NC(=C2C(=N1)C3=CC4=C(C=C3)NC(=O)N4)N

> <PUBCHEM_CACTVS_TPSA>
111

> <PUBCHEM_MONOISOTOPIC_WEIGHT>
309.13380813

> <PUBCHEM_TOTAL_CHARGE>
0

> <PUBCHEM_HEAVY_ATOM_COUNT>
23

> <PUBCHEM_ATOM_DEF_STEREO_COUNT>
0

> <PUBCHEM_ATOM_UDEF_STEREO_COUNT>
0

> <PUBCHEM_BOND_DEF_STEREO_COUNT>
0

> <PUBCHEM_BOND_UDEF_STEREO_COUNT>
0

> <PUBCHEM_ISOTOPIC_ATOM_COUNT>
0

> <PUBCHEM_COMPONENT_COUNT>
1

> <PUBCHEM_CACTVS_TAUTO_COUNT>
-1

> <PUBCHEM_COORDINATE_TYPE>
1
5
255

> <PUBCHEM_BONDANNOTATIONS>
10  11  8
11  12  8
11  20  8
13  17  8
13  19  8
16  17  8
16  18  8
18  21  8
19  21  8
2  12  8
2  3  8
3  10  8
4  16  8
4  22  8
5  12  8
5  23  8
6  18  8
6  22  8
7  20  8
7  23  8

$$$$
