49830425
  -OEChem-03202501082D

 40 42  0     0  0  0  0  0  0999 V2000
   11.5263   -1.2500    0.0000 Cl  0  0  0  0  0  0  0  0  0  0  0  0
    2.0000   -1.7500    0.0000 O   0  0  0  0  0  0  0  0  0  0  0  0
    8.9282    0.2500    0.0000 O   0  0  0  0  0  0  0  0  0  0  0  0
    8.0622    1.7500    0.0000 N   0  0  0  0  0  0  0  0  0  0  0  0
    4.5981   -1.2500    0.0000 N   0  0  0  0  0  0  0  0  0  0  0  0
    3.7320   -1.7500    0.0000 N   0  0  0  0  0  0  0  0  0  0  0  0
    9.7942    1.7500    0.0000 N   0  0  0  0  0  0  0  0  0  0  0  0
    5.4641    0.2500    0.0000 C   0  0  0  0  0  0  0  0  0  0  0  0
    4.5981   -0.2500    0.0000 C   0  0  0  0  0  0  0  0  0  0  0  0
    3.7320    0.2500    0.0000 C   0  0  0  0  0  0  0  0  0  0  0  0
    7.1962    1.2500    0.0000 C   0  0  0  0  0  0  0  0  0  0  0  0
    6.3301   -0.2500    0.0000 C   0  0  0  0  0  0  0  0  0  0  0  0
    5.4641    1.2500    0.0000 C   0  0  0  0  0  0  0  0  0  0  0  0
    7.1962    0.2500    0.0000 C   0  0  0  0  0  0  0  0  0  0  0  0
    6.3301    1.7500    0.0000 C   0  0  0  0  0  0  0  0  0  0  0  0
    2.8660   -0.2500    0.0000 C   0  0  0  0  0  0  0  0  0  0  0  0
    3.7320    1.2500    0.0000 C   0  0  0  0  0  0  0  0  0  0  0  0
    2.8660   -1.2500    0.0000 C   0  0  0  0  0  0  0  0  0  0  0  0
    8.9282    1.2500    0.0000 C   0  0  0  0  0  0  0  0  0  0  0  0
   10.6603    1.2500    0.0000 C   0  0  0  0  0  0  0  0  0  0  0  0
   10.6603    0.2500    0.0000 C   0  0  0  0  0  0  0  0  0  0  0  0
   11.5263    1.7500    0.0000 C   0  0  0  0  0  0  0  0  0  0  0  0
   11.5263   -0.2500    0.0000 C   0  0  0  0  0  0  0  0  0  0  0  0
   12.3923    1.2500    0.0000 C   0  0  0  0  0  0  0  0  0  0  0  0
   12.3923    0.2500    0.0000 C   0  0  0  0  0  0  0  0  0  0  0  0
    6.3301   -0.8700    0.0000 H   0  0  0  0  0  0  0  0  0  0  0  0
    4.9272    1.5600    0.0000 H   0  0  0  0  0  0  0  0  0  0  0  0
    7.7331   -0.0600    0.0000 H   0  0  0  0  0  0  0  0  0  0  0  0
    6.3301    2.3700    0.0000 H   0  0  0  0  0  0  0  0  0  0  0  0
    2.3291    0.0600    0.0000 H   0  0  0  0  0  0  0  0  0  0  0  0
    8.0622    2.3700    0.0000 H   0  0  0  0  0  0  0  0  0  0  0  0
    4.3520    1.2500    0.0000 H   0  0  0  0  0  0  0  0  0  0  0  0
    3.7320    1.8700    0.0000 H   0  0  0  0  0  0  0  0  0  0  0  0
    3.1120    1.2500    0.0000 H   0  0  0  0  0  0  0  0  0  0  0  0
    3.7320   -2.3700    0.0000 H   0  0  0  0  0  0  0  0  0  0  0  0
    9.7942    2.3700    0.0000 H   0  0  0  0  0  0  0  0  0  0  0  0
   10.1233   -0.0600    0.0000 H   0  0  0  0  0  0  0  0  0  0  0  0
   11.5263    2.3700    0.0000 H   0  0  0  0  0  0  0  0  0  0  0  0
   12.9292    1.5600    0.0000 H   0  0  0  0  0  0  0  0  0  0  0  0
   12.9292   -0.0600    0.0000 H   0  0  0  0  0  0  0  0  0  0  0  0
  1 23  1  0  0  0  0
  2 18  2  0  0  0  0
  3 19  2  0  0  0  0
  4 11  1  0  0  0  0
  4 19  1  0  0  0  0
  4 31  1  0  0  0  0
  5  6  1  0  0  0  0
  5  9  2  0  0  0  0
  6 18  1  0  0  0  0
  6 35  1  0  0  0  0
  7 19  1  0  0  0  0
  7 20  1  0  0  0  0
  7 36  1  0  0  0  0
  8  9  1  0  0  0  0
  8 12  2  0  0  0  0
  8 13  1  0  0  0  0
  9 10  1  0  0  0  0
 10 16  2  0  0  0  0
 10 17  1  0  0  0  0
 11 14  2  0  0  0  0
 11 15  1  0  0  0  0
 12 14  1  0  0  0  0
 12 26  1  0  0  0  0
 13 15  2  0  0  0  0
 13 27  1  0  0  0  0
 14 28  1  0  0  0  0
 15 29  1  0  0  0  0
 16 18  1  0  0  0  0
 16 30  1  0  0  0  0
 17 32  1  0  0  0  0
 17 33  1  0  0  0  0
 17 34  1  0  0  0  0
 20 21  2  0  0  0  0
 20 22  1  0  0  0  0
 21 23  1  0  0  0  0
 21 37  1  0  0  0  0
 22 24  2  0  0  0  0
 22 38  1  0  0  0  0
 23 25  2  0  0  0  0
 24 25  1  0  0  0  0
 24 39  1  0  0  0  0
 25 40  1  0  0  0  0
M  END
> <PUBCHEM_COMPOUND_CID>
49830425

> <PUBCHEM_COMPOUND_CANONICALIZED>
1

> <PUBCHEM_CACTVS_COMPLEXITY>
582

> <PUBCHEM_CACTVS_HBOND_ACCEPTOR>
3

> <PUBCHEM_CACTVS_HBOND_DONOR>
3

> <PUBCHEM_CACTVS_ROTATABLE_BOND>
3

> <PUBCHEM_CACTVS_SUBSKEYS>
AAADccB7sAAEAAAAAAAAAAAAAAAAAAAAAAAwYIAAAAAAAAABQAAAHgIYAAAADAqBmCAzwILiAACoAyVyUACSAAAhBwAaiAAgZtiIIKLBk5GEIAhonAJIyScQgIAOCAAAAAIAAAAQAAAABAAAAAAAAAAAAA==

> <PUBCHEM_IUPAC_OPENEYE_NAME>
1-(3-chlorophenyl)-3-[4-(4-methyl-6-oxo-1H-pyridazin-3-yl)phenyl]urea

> <PUBCHEM_IUPAC_CAS_NAME>
1-(3-chlorophenyl)-3-[4-(4-methyl-6-oxo-1H-pyridazin-3-yl)phenyl]urea

> <PUBCHEM_IUPAC_NAME_MARKUP>
1-(3-chlorophenyl)-3-[4-(4-methyl-6-oxo-1<I>H</I>-pyridazin-3-yl)phenyl]urea

> <PUBCHEM_IUPAC_NAME>
1-(3-chlorophenyl)-3-[4-(4-methyl-6-oxo-1H-pyridazin-3-yl)phenyl]urea

> <PUBCHEM_IUPAC_SYSTEMATIC_NAME>
1-(3-chlorophenyl)-3-[4-(4-methyl-6-oxidanylidene-1H-pyridazin-3-yl)phenyl]urea

> <PUBCHEM_IUPAC_TRADITIONAL_NAME>
1-(3-chlorophenyl)-3-[4-(6-keto-4-methyl-1H-pyridazin-3-yl)phenyl]urea

> <PUBCHEM_IUPAC_INCHI>
InChI=1S/C18H15ClN4O2/c1-11-9-16(24)22-23-17(11)12-5-7-14(8-6-12)20-18(25)21-15-4-2-3-13(19)10-15/h2-10H,1H3,(H,22,24)(H2,20,21,25)

> <PUBCHEM_IUPAC_INCHIKEY>
VYPMKWZQENSPAB-UHFFFAOYSA-N

> <PUBCHEM_XLOGP3_AA>
2.8

> <PUBCHEM_EXACT_MASS>
354.0883534

> <PUBCHEM_MOLECULAR_FORMULA>
C18H15ClN4O2

> <PUBCHEM_MOLECULAR_WEIGHT>
354.8

> <PUBCHEM_SMILES>
CC1=CC(=O)NN=C1C2=CC=C(C=C2)NC(=O)NC3=CC(=CC=C3)Cl

> <PUBCHEM_OPENEYE_CAN_SMILES>
CC1=CC(=O)NN=C1C2=CC=C(C=C2)NC(=O)NC3=CC(=CC=C3)Cl

> <PUBCHEM_OPENEYE_ISO_SMILES>
CC1=CC(=O)NN=C1C2=CC=C(C=C2)NC(=O)NC3=CC(=CC=C3)Cl

> <PUBCHEM_CACTVS_TPSA>
82.6

> <PUBCHEM_MONOISOTOPIC_WEIGHT>
354.0883534

> <PUBCHEM_TOTAL_CHARGE>
0

> <PUBCHEM_HEAVY_ATOM_COUNT>
25

> <PUBCHEM_ATOM_DEF_STEREO_COUNT>
0

> <PUBCHEM_ATOM_UDEF_STEREO_COUNT>
0

> <PUBCHEM_BOND_DEF_STEREO_COUNT>
0

> <PUBCHEM_BOND_UDEF_STEREO_COUNT>
0

> <PUBCHEM_ISOTOPIC_ATOM_COUNT>
0

> <PUBCHEM_COMPONENT_COUNT>
1

> <PUBCHEM_CACTVS_TAUTO_COUNT>
-1

> <PUBCHEM_COORDINATE_TYPE>
1
5
255

> <PUBCHEM_BONDANNOTATIONS>
10  16  8
11  14  8
11  15  8
12  14  8
13  15  8
16  18  8
20  21  8
20  22  8
21  23  8
22  24  8
23  25  8
24  25  8
5  6  8
5  9  8
6  18  8
8  12  8
8  13  8
9  10  8

$$$$
