49830879
  -OEChem-03202504002D

 38 40  0     0  0  0  0  0  0999 V2000
    2.5896    2.0386    0.0000 O   0  0  0  0  0  0  0  0  0  0  0  0
    5.9781    1.3184    0.0000 N   0  0  0  0  0  0  0  0  0  0  0  0
    7.2871    2.2694    0.0000 N   0  0  0  0  0  0  0  0  0  0  0  0
    6.7871   -2.2694    0.0000 N   0  0  0  0  0  0  0  0  0  0  0  0
    5.0270    1.0094    0.0000 C   0  0  0  0  0  0  0  0  0  0  0  0
    6.7871    0.7306    0.0000 C   0  0  0  0  0  0  0  0  0  0  0  0
    7.5961    1.3184    0.0000 C   0  0  0  0  0  0  0  0  0  0  0  0
    4.2839    1.6785    0.0000 C   0  0  0  0  0  0  0  0  0  0  0  0
    6.7871   -0.2694    0.0000 C   0  0  0  0  0  0  0  0  0  0  0  0
    6.2871    2.2694    0.0000 C   0  0  0  0  0  0  0  0  0  0  0  0
    8.5472    1.0094    0.0000 C   0  0  0  0  0  0  0  0  0  0  0  0
    3.3328    1.3695    0.0000 C   0  0  0  0  0  0  0  0  0  0  0  0
    5.9210   -0.7694    0.0000 C   0  0  0  0  0  0  0  0  0  0  0  0
    7.6531   -0.7694    0.0000 C   0  0  0  0  0  0  0  0  0  0  0  0
    8.7551    0.0312    0.0000 C   0  0  0  0  0  0  0  0  0  0  0  0
    9.2903    1.6785    0.0000 C   0  0  0  0  0  0  0  0  0  0  0  0
    9.7061   -0.2778    0.0000 C   0  0  0  0  0  0  0  0  0  0  0  0
   10.2413    1.3695    0.0000 C   0  0  0  0  0  0  0  0  0  0  0  0
    5.9210   -1.7694    0.0000 C   0  0  0  0  0  0  0  0  0  0  0  0
    7.6531   -1.7694    0.0000 C   0  0  0  0  0  0  0  0  0  0  0  0
   10.4493    0.3913    0.0000 C   0  0  0  0  0  0  0  0  0  0  0  0
    4.5384    0.6276    0.0000 H   0  0  0  0  0  0  0  0  0  0  0  0
    5.3181    0.4619    0.0000 H   0  0  0  0  0  0  0  0  0  0  0  0
    4.7724    2.0602    0.0000 H   0  0  0  0  0  0  0  0  0  0  0  0
    3.9928    2.2259    0.0000 H   0  0  0  0  0  0  0  0  0  0  0  0
    5.9226    2.7710    0.0000 H   0  0  0  0  0  0  0  0  0  0  0  0
    2.8442    0.9878    0.0000 H   0  0  0  0  0  0  0  0  0  0  0  0
    3.6239    0.8220    0.0000 H   0  0  0  0  0  0  0  0  0  0  0  0
    5.3841   -0.4594    0.0000 H   0  0  0  0  0  0  0  0  0  0  0  0
    8.1900   -0.4594    0.0000 H   0  0  0  0  0  0  0  0  0  0  0  0
    8.2943   -0.3837    0.0000 H   0  0  0  0  0  0  0  0  0  0  0  0
    9.1614    2.2849    0.0000 H   0  0  0  0  0  0  0  0  0  0  0  0
    9.8350   -0.8843    0.0000 H   0  0  0  0  0  0  0  0  0  0  0  0
   10.7021    1.7843    0.0000 H   0  0  0  0  0  0  0  0  0  0  0  0
    5.3841   -2.0794    0.0000 H   0  0  0  0  0  0  0  0  0  0  0  0
    8.1900   -2.0794    0.0000 H   0  0  0  0  0  0  0  0  0  0  0  0
   11.0389    0.1997    0.0000 H   0  0  0  0  0  0  0  0  0  0  0  0
    2.0000    1.8470    0.0000 H   0  0  0  0  0  0  0  0  0  0  0  0
  1 12  1  0  0  0  0
  1 38  1  0  0  0  0
  2  5  1  0  0  0  0
  2  6  1  0  0  0  0
  2 10  1  0  0  0  0
  3  7  1  0  0  0  0
  3 10  2  0  0  0  0
  4 19  2  0  0  0  0
  4 20  1  0  0  0  0
  5  8  1  0  0  0  0
  5 22  1  0  0  0  0
  5 23  1  0  0  0  0
  6  7  2  0  0  0  0
  6  9  1  0  0  0  0
  7 11  1  0  0  0  0
  8 12  1  0  0  0  0
  8 24  1  0  0  0  0
  8 25  1  0  0  0  0
  9 13  2  0  0  0  0
  9 14  1  0  0  0  0
 10 26  1  0  0  0  0
 11 15  2  0  0  0  0
 11 16  1  0  0  0  0
 12 27  1  0  0  0  0
 12 28  1  0  0  0  0
 13 19  1  0  0  0  0
 13 29  1  0  0  0  0
 14 20  2  0  0  0  0
 14 30  1  0  0  0  0
 15 17  1  0  0  0  0
 15 31  1  0  0  0  0
 16 18  2  0  0  0  0
 16 32  1  0  0  0  0
 17 21  2  0  0  0  0
 17 33  1  0  0  0  0
 18 21  1  0  0  0  0
 18 34  1  0  0  0  0
 19 35  1  0  0  0  0
 20 36  1  0  0  0  0
 21 37  1  0  0  0  0
M  END
> <PUBCHEM_COMPOUND_CID>
49830879

> <PUBCHEM_COMPOUND_CANONICALIZED>
1

> <PUBCHEM_CACTVS_COMPLEXITY>
300

> <PUBCHEM_CACTVS_HBOND_ACCEPTOR>
3

> <PUBCHEM_CACTVS_HBOND_DONOR>
1

> <PUBCHEM_CACTVS_ROTATABLE_BOND>
5

> <PUBCHEM_CACTVS_SUBSKEYS>
AAADceB7IAAAAAAAAAAAAAAAAAAAAWAAAAA8QAAAAAAAAAAB8AAAHgAACAAADAjhngY9kJcMEgCgAzRnZACCgC0xEqAJ2CA4dJiIeOLAmZGUYAhqgALIyCcQgMAOAAAAAAAAAAAAAAAAAAAAAAAAAAAAAA==

> <PUBCHEM_IUPAC_OPENEYE_NAME>
3-[4-phenyl-5-(4-pyridyl)imidazol-1-yl]propan-1-ol

> <PUBCHEM_IUPAC_CAS_NAME>
3-(4-phenyl-5-pyridin-4-yl-1-imidazolyl)-1-propanol

> <PUBCHEM_IUPAC_NAME_MARKUP>
3-(4-phenyl-5-pyridin-4-ylimidazol-1-yl)propan-1-ol

> <PUBCHEM_IUPAC_NAME>
3-(4-phenyl-5-pyridin-4-ylimidazol-1-yl)propan-1-ol

> <PUBCHEM_IUPAC_SYSTEMATIC_NAME>
3-(4-phenyl-5-pyridin-4-yl-imidazol-1-yl)propan-1-ol

> <PUBCHEM_IUPAC_TRADITIONAL_NAME>
3-[4-phenyl-5-(4-pyridyl)imidazol-1-yl]propan-1-ol

> <PUBCHEM_IUPAC_INCHI>
InChI=1S/C17H17N3O/c21-12-4-11-20-13-19-16(14-5-2-1-3-6-14)17(20)15-7-9-18-10-8-15/h1-3,5-10,13,21H,4,11-12H2

> <PUBCHEM_IUPAC_INCHIKEY>
ULSIWAGDPRIVCH-UHFFFAOYSA-N

> <PUBCHEM_XLOGP3_AA>
1.9

> <PUBCHEM_EXACT_MASS>
279.137162174

> <PUBCHEM_MOLECULAR_FORMULA>
C17H17N3O

> <PUBCHEM_MOLECULAR_WEIGHT>
279.34

> <PUBCHEM_SMILES>
C1=CC=C(C=C1)C2=C(N(C=N2)CCCO)C3=CC=NC=C3

> <PUBCHEM_OPENEYE_CAN_SMILES>
C1=CC=C(C=C1)C2=C(N(C=N2)CCCO)C3=CC=NC=C3

> <PUBCHEM_OPENEYE_ISO_SMILES>
C1=CC=C(C=C1)C2=C(N(C=N2)CCCO)C3=CC=NC=C3

> <PUBCHEM_CACTVS_TPSA>
50.9

> <PUBCHEM_MONOISOTOPIC_WEIGHT>
279.137162174

> <PUBCHEM_TOTAL_CHARGE>
0

> <PUBCHEM_HEAVY_ATOM_COUNT>
21

> <PUBCHEM_ATOM_DEF_STEREO_COUNT>
0

> <PUBCHEM_ATOM_UDEF_STEREO_COUNT>
0

> <PUBCHEM_BOND_DEF_STEREO_COUNT>
0

> <PUBCHEM_BOND_UDEF_STEREO_COUNT>
0

> <PUBCHEM_ISOTOPIC_ATOM_COUNT>
0

> <PUBCHEM_COMPONENT_COUNT>
1

> <PUBCHEM_CACTVS_TAUTO_COUNT>
-1

> <PUBCHEM_COORDINATE_TYPE>
1
5
255

> <PUBCHEM_BONDANNOTATIONS>
11  15  8
11  16  8
13  19  8
14  20  8
15  17  8
16  18  8
17  21  8
18  21  8
2  10  8
2  6  8
3  10  8
3  7  8
4  19  8
4  20  8
6  7  8
9  13  8
9  14  8

$$$$
