44340904
  -OEChem-03202505302D

 72 78  0     1  0  0  0  0  0999 V2000
    5.0389   -0.0103    0.0000 O   0  0  0  0  0  0  0  0  0  0  0  0
    4.9924   -2.6557    0.0000 O   0  0  0  0  0  0  0  0  0  0  0  0
    3.0354   -2.2433    0.0000 O   0  0  0  0  0  0  0  0  0  0  0  0
    2.4141   -0.3422    0.0000 O   0  0  0  0  0  0  0  0  0  0  0  0
    2.7712    1.3526    0.0000 O   0  0  0  0  0  0  0  0  0  0  0  0
   10.0540   -1.7552    0.0000 O   0  0  0  0  0  0  0  0  0  0  0  0
   10.0540    1.7552    0.0000 O   0  0  0  0  0  0  0  0  0  0  0  0
    8.5182   -4.5566    0.0000 O   0  0  0  0  0  0  0  0  0  0  0  0
    8.5182    4.5566    0.0000 O   0  0  0  0  0  0  0  0  0  0  0  0
   13.3270    1.7320    0.0000 O   0  0  0  0  0  0  0  0  0  0  0  0
   11.8270    2.5981    0.0000 O   0  0  0  0  0  0  0  0  0  0  0  0
    6.3281   -1.1671    0.0000 N   0  0  0  0  0  0  0  0  0  0  0  0
    6.3281    1.1671    0.0000 N   0  0  0  0  0  0  0  0  0  0  0  0
   10.3270    0.0000    0.0000 N   0  0  0  0  0  0  0  0  0  0  0  0
   11.3270    0.0000    0.0000 N   0  0  0  0  0  0  0  0  0  0  0  0
    5.3496   -0.9609    0.0000 C   0  0  3  0  0  0  0  0  0  0  0  0
    4.6817   -1.7052    0.0000 C   0  0  3  0  0  0  0  0  0  0  0  0
    7.0651   -0.5000    0.0000 C   0  0  0  0  0  0  0  0  0  0  0  0
    3.7032   -1.4990    0.0000 C   0  0  3  0  0  0  0  0  0  0  0  0
    3.3926   -0.5484    0.0000 C   0  0  3  0  0  0  0  0  0  0  0  0
    7.9311   -1.0000    0.0000 C   0  0  0  0  0  0  0  0  0  0  0  0
    4.0604    0.1959    0.0000 C   0  0  3  0  0  0  0  0  0  0  0  0
    6.7332   -2.0749    0.0000 C   0  0  0  0  0  0  0  0  0  0  0  0
    7.0651    0.5000    0.0000 C   0  0  0  0  0  0  0  0  0  0  0  0
    7.7219   -1.9718    0.0000 C   0  0  0  0  0  0  0  0  0  0  0  0
    8.7972   -0.5000    0.0000 C   0  0  0  0  0  0  0  0  0  0  0  0
    7.9311    1.0000    0.0000 C   0  0  0  0  0  0  0  0  0  0  0  0
    8.7972    0.5000    0.0000 C   0  0  0  0  0  0  0  0  0  0  0  0
    7.7219    1.9718    0.0000 C   0  0  0  0  0  0  0  0  0  0  0  0
    3.7498    1.1464    0.0000 C   0  0  0  0  0  0  0  0  0  0  0  0
    6.7332    2.0749    0.0000 C   0  0  0  0  0  0  0  0  0  0  0  0
    9.7434   -0.8047    0.0000 C   0  0  0  0  0  0  0  0  0  0  0  0
    6.2967   -3.0138    0.0000 C   0  0  0  0  0  0  0  0  0  0  0  0
    9.7434    0.8047    0.0000 C   0  0  0  0  0  0  0  0  0  0  0  0
    8.3427   -2.8006    0.0000 C   0  0  0  0  0  0  0  0  0  0  0  0
    6.8981   -3.8567    0.0000 C   0  0  0  0  0  0  0  0  0  0  0  0
    7.9280   -3.7494    0.0000 C   0  0  0  0  0  0  0  0  0  0  0  0
    8.3427    2.8006    0.0000 C   0  0  0  0  0  0  0  0  0  0  0  0
    6.2967    3.0138    0.0000 C   0  0  0  0  0  0  0  0  0  0  0  0
   11.8270    0.8660    0.0000 C   0  0  0  0  0  0  0  0  0  0  0  0
    7.9280    3.7494    0.0000 C   0  0  0  0  0  0  0  0  0  0  0  0
    6.8981    3.8567    0.0000 C   0  0  0  0  0  0  0  0  0  0  0  0
   12.8270    0.8660    0.0000 C   0  0  0  0  0  0  0  0  0  0  0  0
   11.3270    1.7320    0.0000 C   0  0  0  0  0  0  0  0  0  0  0  0
    5.7636   -0.4994    0.0000 H   0  0  0  0  0  0  0  0  0  0  0  0
    5.2884   -1.8330    0.0000 H   0  0  0  0  0  0  0  0  0  0  0  0
    3.8958   -2.0883    0.0000 H   0  0  0  0  0  0  0  0  0  0  0  0
    2.9785   -1.0099    0.0000 H   0  0  0  0  0  0  0  0  0  0  0  0
    4.4745    0.6573    0.0000 H   0  0  0  0  0  0  0  0  0  0  0  0
    4.3636    1.2337    0.0000 H   0  0  0  0  0  0  0  0  0  0  0  0
    3.7703    1.7660    0.0000 H   0  0  0  0  0  0  0  0  0  0  0  0
    5.7214    1.0392    0.0000 H   0  0  0  0  0  0  0  0  0  0  0  0
    5.6793   -3.0710    0.0000 H   0  0  0  0  0  0  0  0  0  0  0  0
    8.9586   -2.7292    0.0000 H   0  0  0  0  0  0  0  0  0  0  0  0
    4.5783   -3.1172    0.0000 H   0  0  0  0  0  0  0  0  0  0  0  0
    2.4287   -2.1154    0.0000 H   0  0  0  0  0  0  0  0  0  0  0  0
    2.0000   -0.8037    0.0000 H   0  0  0  0  0  0  0  0  0  0  0  0
    6.6433   -4.4219    0.0000 H   0  0  0  0  0  0  0  0  0  0  0  0
    8.9586    2.7292    0.0000 H   0  0  0  0  0  0  0  0  0  0  0  0
    5.6793    3.0710    0.0000 H   0  0  0  0  0  0  0  0  0  0  0  0
   11.6370   -0.5369    0.0000 H   0  0  0  0  0  0  0  0  0  0  0  0
   12.1370    0.3291    0.0000 H   0  0  0  0  0  0  0  0  0  0  0  0
    2.5786    1.9419    0.0000 H   0  0  0  0  0  0  0  0  0  0  0  0
    6.6433    4.4219    0.0000 H   0  0  0  0  0  0  0  0  0  0  0  0
   12.7193    0.2554    0.0000 H   0  0  0  0  0  0  0  0  0  0  0  0
   13.4096    0.6540    0.0000 H   0  0  0  0  0  0  0  0  0  0  0  0
   10.8520    2.1306    0.0000 H   0  0  0  0  0  0  0  0  0  0  0  0
   10.8520    1.3335    0.0000 H   0  0  0  0  0  0  0  0  0  0  0  0
    8.2677   -5.1238    0.0000 H   0  0  0  0  0  0  0  0  0  0  0  0
    8.2677    5.1238    0.0000 H   0  0  0  0  0  0  0  0  0  0  0  0
   13.9470    1.7320    0.0000 H   0  0  0  0  0  0  0  0  0  0  0  0
   11.5170    3.1350    0.0000 H   0  0  0  0  0  0  0  0  0  0  0  0
  1 16  1  0  0  0  0
  1 22  1  0  0  0  0
  2 17  1  0  0  0  0
  2 55  1  0  0  0  0
  3 19  1  0  0  0  0
  3 56  1  0  0  0  0
  4 20  1  0  0  0  0
  4 57  1  0  0  0  0
  5 30  1  0  0  0  0
  5 63  1  0  0  0  0
  6 32  2  0  0  0  0
  7 34  2  0  0  0  0
  8 37  1  0  0  0  0
  8 69  1  0  0  0  0
  9 41  1  0  0  0  0
  9 70  1  0  0  0  0
 10 43  1  0  0  0  0
 10 71  1  0  0  0  0
 11 44  1  0  0  0  0
 11 72  1  0  0  0  0
 12 16  1  0  0  0  0
 12 18  1  0  0  0  0
 12 23  1  0  0  0  0
 13 24  1  0  0  0  0
 13 31  1  0  0  0  0
 13 52  1  0  0  0  0
 14 15  1  0  0  0  0
 14 32  1  0  0  0  0
 14 34  1  0  0  0  0
 15 40  1  0  0  0  0
 15 61  1  0  0  0  0
 16 17  1  0  0  0  0
 16 45  1  0  0  0  0
 17 19  1  0  0  0  0
 17 46  1  0  0  0  0
 18 21  1  0  0  0  0
 18 24  2  0  0  0  0
 19 20  1  0  0  0  0
 19 47  1  0  0  0  0
 20 22  1  0  0  0  0
 20 48  1  0  0  0  0
 21 25  1  0  0  0  0
 21 26  2  0  0  0  0
 22 30  1  0  0  0  0
 22 49  1  0  0  0  0
 23 25  2  0  0  0  0
 23 33  1  0  0  0  0
 24 27  1  0  0  0  0
 25 35  1  0  0  0  0
 26 28  1  0  0  0  0
 26 32  1  0  0  0  0
 27 28  2  0  0  0  0
 27 29  1  0  0  0  0
 28 34  1  0  0  0  0
 29 31  2  0  0  0  0
 29 38  1  0  0  0  0
 30 50  1  0  0  0  0
 30 51  1  0  0  0  0
 31 39  1  0  0  0  0
 33 36  2  0  0  0  0
 33 53  1  0  0  0  0
 35 37  2  0  0  0  0
 35 54  1  0  0  0  0
 36 37  1  0  0  0  0
 36 58  1  0  0  0  0
 38 41  2  0  0  0  0
 38 59  1  0  0  0  0
 39 42  2  0  0  0  0
 39 60  1  0  0  0  0
 40 43  1  0  0  0  0
 40 44  1  0  0  0  0
 40 62  1  0  0  0  0
 41 42  1  0  0  0  0
 42 64  1  0  0  0  0
 43 65  1  0  0  0  0
 43 66  1  0  0  0  0
 44 67  1  0  0  0  0
 44 68  1  0  0  0  0
M  END
> <PUBCHEM_COMPOUND_CID>
44340904

> <PUBCHEM_COMPOUND_CANONICALIZED>
1

> <PUBCHEM_CACTVS_COMPLEXITY>
1120

> <PUBCHEM_CACTVS_HBOND_ACCEPTOR>
12

> <PUBCHEM_CACTVS_HBOND_DONOR>
10

> <PUBCHEM_CACTVS_ROTATABLE_BOND>
6

> <PUBCHEM_CACTVS_SUBSKEYS>
AAADceB7vAAAAAAAAAAAAAAAAAAAAWLFgAA0YMEAAAAAAFgB/gAAHgAYCAAADDzhngYwxvPvlgCoAyVyVACCgCQlMiAa+aE+fNgLdvLClZOecQhn1DHb2Qf9+feeyEADQAASACCQgAaAACQAQAAAAAAAAA==

> <PUBCHEM_IUPAC_OPENEYE_NAME>
7,19-dihydroxy-13-[[2-hydroxy-1-(hydroxymethyl)ethyl]amino]-3-[3,4,5-trihydroxy-6-(hydroxymethyl)tetrahydropyran-2-yl]-3,13,23-triazahexacyclo[14.7.0.02,10.04,9.011,15.017,22]tricosa-1,4(9),5,7,10,15,17(22),18,20-nonaene-12,14-dione

> <PUBCHEM_IUPAC_CAS_NAME>
13-(1,3-dihydroxypropan-2-ylamino)-7,19-dihydroxy-3-[3,4,5-trihydroxy-6-(hydroxymethyl)-2-oxanyl]-3,13,23-triazahexacyclo[14.7.0.02,10.04,9.011,15.017,22]tricosa-1,4(9),5,7,10,15,17(22),18,20-nonaene-12,14-dione

> <PUBCHEM_IUPAC_NAME_MARKUP>
13-(1,3-dihydroxypropan-2-ylamino)-7,19-dihydroxy-3-[3,4,5-trihydroxy-6-(hydroxymethyl)oxan-2-yl]-3,13,23-triazahexacyclo[14.7.0.0<SUP>2,10</SUP>.0<SUP>4,9</SUP>.0<SUP>11,15</SUP>.0<SUP>17,22</SUP>]tricosa-1,4(9),5,7,10,15,17(22),18,20-nonaene-12,14-dione

> <PUBCHEM_IUPAC_NAME>
13-(1,3-dihydroxypropan-2-ylamino)-7,19-dihydroxy-3-[3,4,5-trihydroxy-6-(hydroxymethyl)oxan-2-yl]-3,13,23-triazahexacyclo[14.7.0.02,10.04,9.011,15.017,22]tricosa-1,4(9),5,7,10,15,17(22),18,20-nonaene-12,14-dione

> <PUBCHEM_IUPAC_SYSTEMATIC_NAME>
13-[1,3-bis(oxidanyl)propan-2-ylamino]-3-[6-(hydroxymethyl)-3,4,5-tris(oxidanyl)oxan-2-yl]-7,19-bis(oxidanyl)-3,13,23-triazahexacyclo[14.7.0.02,10.04,9.011,15.017,22]tricosa-1,4(9),5,7,10,15,17(22),18,20-nonaene-12,14-dione

> <PUBCHEM_IUPAC_TRADITIONAL_NAME>
7,19-dihydroxy-13-[(2-hydroxy-1-methylol-ethyl)amino]-3-(3,4,5-trihydroxy-6-methylol-tetrahydropyran-2-yl)-3,13,23-triazahexacyclo[14.7.0.02,10.04,9.011,15.017,22]tricosa-1,4(9),5,7,10,15,17(22),18,20-nonaene-12,14-quinone

> <PUBCHEM_IUPAC_INCHI>
InChI=1S/C29H28N4O11/c34-7-10(8-35)31-33-27(42)20-18-13-5-11(37)1-3-15(13)30-22(18)23-19(21(20)28(33)43)14-6-12(38)2-4-16(14)32(23)29-26(41)25(40)24(39)17(9-36)44-29/h1-6,10,17,24-26,29-31,34-41H,7-9H2

> <PUBCHEM_IUPAC_INCHIKEY>
LOJRQZJKRCGYQW-UHFFFAOYSA-N

> <PUBCHEM_XLOGP3_AA>
-0.7

> <PUBCHEM_EXACT_MASS>
608.17545772

> <PUBCHEM_MOLECULAR_FORMULA>
C29H28N4O11

> <PUBCHEM_MOLECULAR_WEIGHT>
608.6

> <PUBCHEM_SMILES>
C1=CC2=C(C=C1O)C3=C4C(=C5C6=C(C=CC(=C6)O)N(C5=C3N2)C7C(C(C(C(O7)CO)O)O)O)C(=O)N(C4=O)NC(CO)CO

> <PUBCHEM_OPENEYE_CAN_SMILES>
C1=CC2=C(C=C1O)C3=C4C(=C5C6=C(C=CC(=C6)O)N(C5=C3N2)C7C(C(C(C(O7)CO)O)O)O)C(=O)N(C4=O)NC(CO)CO

> <PUBCHEM_OPENEYE_ISO_SMILES>
C1=CC2=C(C=C1O)C3=C4C(=C5C6=C(C=CC(=C6)O)N(C5=C3N2)C7C(C(C(C(O7)CO)O)O)O)C(=O)N(C4=O)NC(CO)CO

> <PUBCHEM_CACTVS_TPSA>
241

> <PUBCHEM_MONOISOTOPIC_WEIGHT>
608.17545772

> <PUBCHEM_TOTAL_CHARGE>
0

> <PUBCHEM_HEAVY_ATOM_COUNT>
44

> <PUBCHEM_ATOM_DEF_STEREO_COUNT>
0

> <PUBCHEM_ATOM_UDEF_STEREO_COUNT>
5

> <PUBCHEM_BOND_DEF_STEREO_COUNT>
0

> <PUBCHEM_BOND_UDEF_STEREO_COUNT>
0

> <PUBCHEM_ISOTOPIC_ATOM_COUNT>
0

> <PUBCHEM_COMPONENT_COUNT>
1

> <PUBCHEM_CACTVS_TAUTO_COUNT>
-1

> <PUBCHEM_COORDINATE_TYPE>
1
5
255

> <PUBCHEM_BONDANNOTATIONS>
16  12  3
12  18  8
12  23  8
13  24  8
13  31  8
18  21  8
18  24  8
17  2  3
21  25  8
21  26  8
22  30  3
23  25  8
23  33  8
24  27  8
25  35  8
26  28  8
27  28  8
27  29  8
29  31  8
29  38  8
19  3  3
31  39  8
33  36  8
35  37  8
36  37  8
38  41  8
39  42  8
20  4  3
41  42  8

$$$$
