3540
  -OEChem-03202500202D

 33 34  0     0  0  0  0  0  0999 V2000
    4.2690   -0.4827    0.0000 S   0  0  0  0  0  0  0  0  0  0  0  0
    3.2690   -0.4827    0.0000 O   0  0  0  0  0  0  0  0  0  0  0  0
    5.2690   -0.4827    0.0000 O   0  0  0  0  0  0  0  0  0  0  0  0
    4.2690    0.5173    0.0000 N   0  0  0  0  0  0  0  0  0  0  0  0
    2.5369    2.5173    0.0000 N   0  0  0  0  0  0  0  0  0  0  0  0
    6.9350   -3.0035    0.0000 N   0  0  0  0  0  0  0  0  0  0  0  0
    4.2690   -1.4827    0.0000 C   0  0  0  0  0  0  0  0  0  0  0  0
    5.1350   -1.9827    0.0000 C   0  0  0  0  0  0  0  0  0  0  0  0
    3.4030    1.0173    0.0000 C   0  0  0  0  0  0  0  0  0  0  0  0
    5.1350   -2.9827    0.0000 C   0  0  0  0  0  0  0  0  0  0  0  0
    3.4030    2.0173    0.0000 C   0  0  0  0  0  0  0  0  0  0  0  0
    3.4030   -1.9827    0.0000 C   0  0  0  0  0  0  0  0  0  0  0  0
    4.2690   -3.4827    0.0000 C   0  0  0  0  0  0  0  0  0  0  0  0
    6.0290   -1.4480    0.0000 C   0  0  0  0  0  0  0  0  0  0  0  0
    3.4030   -2.9827    0.0000 C   0  0  0  0  0  0  0  0  0  0  0  0
    6.0290   -3.5173    0.0000 C   0  0  0  0  0  0  0  0  0  0  0  0
    6.9350   -1.9618    0.0000 C   0  0  0  0  0  0  0  0  0  0  0  0
    2.5369    3.5173    0.0000 C   0  0  0  0  0  0  0  0  0  0  0  0
    2.7924    1.1250    0.0000 H   0  0  0  0  0  0  0  0  0  0  0  0
    3.1909    0.4347    0.0000 H   0  0  0  0  0  0  0  0  0  0  0  0
    4.8059    0.8273    0.0000 H   0  0  0  0  0  0  0  0  0  0  0  0
    4.0135    1.9097    0.0000 H   0  0  0  0  0  0  0  0  0  0  0  0
    3.6150    2.5999    0.0000 H   0  0  0  0  0  0  0  0  0  0  0  0
    2.8660   -1.6727    0.0000 H   0  0  0  0  0  0  0  0  0  0  0  0
    4.2690   -4.1027    0.0000 H   0  0  0  0  0  0  0  0  0  0  0  0
    6.0218   -0.8280    0.0000 H   0  0  0  0  0  0  0  0  0  0  0  0
    2.8660   -3.2927    0.0000 H   0  0  0  0  0  0  0  0  0  0  0  0
    6.0218   -4.1373    0.0000 H   0  0  0  0  0  0  0  0  0  0  0  0
    2.0000    2.2073    0.0000 H   0  0  0  0  0  0  0  0  0  0  0  0
    7.4708   -1.6498    0.0000 H   0  0  0  0  0  0  0  0  0  0  0  0
    3.1569    3.5173    0.0000 H   0  0  0  0  0  0  0  0  0  0  0  0
    2.5369    4.1373    0.0000 H   0  0  0  0  0  0  0  0  0  0  0  0
    1.9169    3.5173    0.0000 H   0  0  0  0  0  0  0  0  0  0  0  0
  1  2  2  0  0  0  0
  1  3  2  0  0  0  0
  1  4  1  0  0  0  0
  1  7  1  0  0  0  0
  4  9  1  0  0  0  0
  4 21  1  0  0  0  0
  5 11  1  0  0  0  0
  5 18  1  0  0  0  0
  5 29  1  0  0  0  0
  6 16  2  0  0  0  0
  6 17  1  0  0  0  0
  7  8  1  0  0  0  0
  7 12  2  0  0  0  0
  8 10  2  0  0  0  0
  8 14  1  0  0  0  0
  9 11  1  0  0  0  0
  9 19  1  0  0  0  0
  9 20  1  0  0  0  0
 10 13  1  0  0  0  0
 10 16  1  0  0  0  0
 11 22  1  0  0  0  0
 11 23  1  0  0  0  0
 12 15  1  0  0  0  0
 12 24  1  0  0  0  0
 13 15  2  0  0  0  0
 13 25  1  0  0  0  0
 14 17  2  0  0  0  0
 14 26  1  0  0  0  0
 15 27  1  0  0  0  0
 16 28  1  0  0  0  0
 17 30  1  0  0  0  0
 18 31  1  0  0  0  0
 18 32  1  0  0  0  0
 18 33  1  0  0  0  0
M  END
> <PUBCHEM_COMPOUND_CID>
3540

> <PUBCHEM_COMPOUND_CANONICALIZED>
1

> <PUBCHEM_CACTVS_COMPLEXITY>
353

> <PUBCHEM_CACTVS_HBOND_ACCEPTOR>
5

> <PUBCHEM_CACTVS_HBOND_DONOR>
2

> <PUBCHEM_CACTVS_ROTATABLE_BOND>
5

> <PUBCHEM_CACTVS_SUBSKEYS>
AAADccBzMABAAAAAAAAAAAAAAAAAAAAAAAA8QAAAAAAAAACx8AAAHAQQQAAADADBWgQ+gdLIEAKgAjBnRHDCgDAxAiAI2Lg4ZJgIYOLAkZGUIAhgkADIyAcQgIAOgAAAgAAUAAAAAAEAACgAAAAAAAAAAA==

> <PUBCHEM_IUPAC_OPENEYE_NAME>
N-[2-(methylamino)ethyl]isoquinoline-5-sulfonamide

> <PUBCHEM_IUPAC_CAS_NAME>
N-[2-(methylamino)ethyl]-5-isoquinolinesulfonamide

> <PUBCHEM_IUPAC_NAME_MARKUP>
<I>N</I>-[2-(methylamino)ethyl]isoquinoline-5-sulfonamide

> <PUBCHEM_IUPAC_NAME>
N-[2-(methylamino)ethyl]isoquinoline-5-sulfonamide

> <PUBCHEM_IUPAC_SYSTEMATIC_NAME>
N-[2-(methylamino)ethyl]isoquinoline-5-sulfonamide

> <PUBCHEM_IUPAC_TRADITIONAL_NAME>
N-[2-(methylamino)ethyl]isoquinoline-5-sulfonamide

> <PUBCHEM_IUPAC_INCHI>
InChI=1S/C12H15N3O2S/c1-13-7-8-15-18(16,17)12-4-2-3-10-9-14-6-5-11(10)12/h2-6,9,13,15H,7-8H2,1H3

> <PUBCHEM_IUPAC_INCHIKEY>
PJWUXKNZVMEPPH-UHFFFAOYSA-N

> <PUBCHEM_XLOGP3_AA>
0.6

> <PUBCHEM_EXACT_MASS>
265.08849790

> <PUBCHEM_MOLECULAR_FORMULA>
C12H15N3O2S

> <PUBCHEM_MOLECULAR_WEIGHT>
265.33

> <PUBCHEM_SMILES>
CNCCNS(=O)(=O)C1=CC=CC2=C1C=CN=C2

> <PUBCHEM_OPENEYE_CAN_SMILES>
CNCCNS(=O)(=O)C1=CC=CC2=C1C=CN=C2

> <PUBCHEM_OPENEYE_ISO_SMILES>
CNCCNS(=O)(=O)C1=CC=CC2=C1C=CN=C2

> <PUBCHEM_CACTVS_TPSA>
79.5

> <PUBCHEM_MONOISOTOPIC_WEIGHT>
265.08849790

> <PUBCHEM_TOTAL_CHARGE>
0

> <PUBCHEM_HEAVY_ATOM_COUNT>
18

> <PUBCHEM_ATOM_DEF_STEREO_COUNT>
0

> <PUBCHEM_ATOM_UDEF_STEREO_COUNT>
0

> <PUBCHEM_BOND_DEF_STEREO_COUNT>
0

> <PUBCHEM_BOND_UDEF_STEREO_COUNT>
0

> <PUBCHEM_ISOTOPIC_ATOM_COUNT>
0

> <PUBCHEM_COMPONENT_COUNT>
1

> <PUBCHEM_CACTVS_TAUTO_COUNT>
-1

> <PUBCHEM_COORDINATE_TYPE>
1
5
255

> <PUBCHEM_BONDANNOTATIONS>
10  13  8
10  16  8
12  15  8
13  15  8
14  17  8
6  16  8
6  17  8
7  12  8
7  8  8
8  10  8
8  14  8

$$$$
