49830671
  -OEChem-03202502112D

 42 45  0     0  0  0  0  0  0999 V2000
    6.2619   -3.0633    0.0000 Br  0  0  0  0  0  0  0  0  0  0  0  0
   10.5028    1.6241    0.0000 Cl  0  0  0  0  0  0  0  0  0  0  0  0
    4.6783   -3.8680    0.0000 S   0  0  0  0  0  0  0  0  0  0  0  0
    7.5673    1.0055    0.0000 O   0  0  0  0  0  0  0  0  0  0  0  0
    5.9209    1.5436    0.0000 N   0  0  0  0  0  0  0  0  0  0  0  0
    2.8660   -4.0633    0.0000 N   0  0  0  0  0  0  0  0  0  0  0  0
    2.0000   -2.5633    0.0000 N   0  0  0  0  0  0  0  0  0  0  0  0
    2.8660   -1.0633    0.0000 N   0  0  0  0  0  0  0  0  0  0  0  0
    4.6783   -2.2585    0.0000 C   0  0  0  0  0  0  0  0  0  0  0  0
    4.9889   -1.3080    0.0000 C   0  0  0  0  0  0  0  0  0  0  0  0
    3.7320   -2.5633    0.0000 C   0  0  0  0  0  0  0  0  0  0  0  0
    5.6103    0.5930    0.0000 C   0  0  0  0  0  0  0  0  0  0  0  0
    5.9674   -1.1018    0.0000 C   0  0  0  0  0  0  0  0  0  0  0  0
    4.3211   -0.5637    0.0000 C   0  0  0  0  0  0  0  0  0  0  0  0
    3.7320   -3.5633    0.0000 C   0  0  0  0  0  0  0  0  0  0  0  0
    5.2619   -3.0633    0.0000 C   0  0  0  0  0  0  0  0  0  0  0  0
    6.2781   -0.1513    0.0000 C   0  0  0  0  0  0  0  0  0  0  0  0
    4.6318    0.3868    0.0000 C   0  0  0  0  0  0  0  0  0  0  0  0
    2.8660   -2.0633    0.0000 C   0  0  0  0  0  0  0  0  0  0  0  0
    7.2101    2.7003    0.0000 C   0  0  0  0  0  0  0  0  0  0  0  0
    8.1886    2.9065    0.0000 C   0  0  0  0  0  0  0  0  0  0  0  0
    6.8994    1.7498    0.0000 C   0  0  0  0  0  0  0  0  0  0  0  0
    8.8564    2.1622    0.0000 C   0  0  0  0  0  0  0  0  0  0  0  0
    8.4993    3.8570    0.0000 C   0  0  0  0  0  0  0  0  0  0  0  0
    2.0000   -3.5633    0.0000 C   0  0  0  0  0  0  0  0  0  0  0  0
    9.8349    2.3684    0.0000 C   0  0  0  0  0  0  0  0  0  0  0  0
    9.4778    4.0633    0.0000 C   0  0  0  0  0  0  0  0  0  0  0  0
   10.1456    3.3190    0.0000 C   0  0  0  0  0  0  0  0  0  0  0  0
    6.3815   -1.5632    0.0000 H   0  0  0  0  0  0  0  0  0  0  0  0
    3.7144   -0.6916    0.0000 H   0  0  0  0  0  0  0  0  0  0  0  0
    6.8848   -0.0234    0.0000 H   0  0  0  0  0  0  0  0  0  0  0  0
    4.2177    0.8483    0.0000 H   0  0  0  0  0  0  0  0  0  0  0  0
    7.1895    3.3200    0.0000 H   0  0  0  0  0  0  0  0  0  0  0  0
    6.5963    2.7877    0.0000 H   0  0  0  0  0  0  0  0  0  0  0  0
    5.5069    2.0050    0.0000 H   0  0  0  0  0  0  0  0  0  0  0  0
    8.6638    1.5729    0.0000 H   0  0  0  0  0  0  0  0  0  0  0  0
    8.0852    4.3185    0.0000 H   0  0  0  0  0  0  0  0  0  0  0  0
    1.4631   -3.8733    0.0000 H   0  0  0  0  0  0  0  0  0  0  0  0
    2.3291   -0.7533    0.0000 H   0  0  0  0  0  0  0  0  0  0  0  0
    3.4030   -0.7533    0.0000 H   0  0  0  0  0  0  0  0  0  0  0  0
    9.6704    4.6526    0.0000 H   0  0  0  0  0  0  0  0  0  0  0  0
   10.7523    3.4468    0.0000 H   0  0  0  0  0  0  0  0  0  0  0  0
  1 16  1  0  0  0  0
  2 26  1  0  0  0  0
  3 15  1  0  0  0  0
  3 16  1  0  0  0  0
  4 22  2  0  0  0  0
  5 12  1  0  0  0  0
  5 22  1  0  0  0  0
  5 35  1  0  0  0  0
  6 15  2  0  0  0  0
  6 25  1  0  0  0  0
  7 19  1  0  0  0  0
  7 25  2  0  0  0  0
  8 19  1  0  0  0  0
  8 39  1  0  0  0  0
  8 40  1  0  0  0  0
  9 10  1  0  0  0  0
  9 11  1  0  0  0  0
  9 16  2  0  0  0  0
 10 13  2  0  0  0  0
 10 14  1  0  0  0  0
 11 15  1  0  0  0  0
 11 19  2  0  0  0  0
 12 17  2  0  0  0  0
 12 18  1  0  0  0  0
 13 17  1  0  0  0  0
 13 29  1  0  0  0  0
 14 18  2  0  0  0  0
 14 30  1  0  0  0  0
 17 31  1  0  0  0  0
 18 32  1  0  0  0  0
 20 21  1  0  0  0  0
 20 22  1  0  0  0  0
 20 33  1  0  0  0  0
 20 34  1  0  0  0  0
 21 23  2  0  0  0  0
 21 24  1  0  0  0  0
 23 26  1  0  0  0  0
 23 36  1  0  0  0  0
 24 27  2  0  0  0  0
 24 37  1  0  0  0  0
 25 38  1  0  0  0  0
 26 28  2  0  0  0  0
 27 28  1  0  0  0  0
 27 41  1  0  0  0  0
 28 42  1  0  0  0  0
M  END
> <PUBCHEM_COMPOUND_CID>
49830671

> <PUBCHEM_COMPOUND_CANONICALIZED>
1

> <PUBCHEM_CACTVS_COMPLEXITY>
550

> <PUBCHEM_CACTVS_HBOND_ACCEPTOR>
5

> <PUBCHEM_CACTVS_HBOND_DONOR>
2

> <PUBCHEM_CACTVS_ROTATABLE_BOND>
4

> <PUBCHEM_CACTVS_SUBSKEYS>
AAADccB7oABEEAAAAAAAAAAAAAAAASAAAAA8YIAAAAAAAFgB/AAAHgZQAAABLAqB2iQ18dbIEAisAidzdACD0KlxD7wJ2DEoZriIKDLh39GEJAxolALoyjcYiMCOiAAAIAAAAAAQAABAAAAAAAAAAAAAAA==

> <PUBCHEM_IUPAC_OPENEYE_NAME>
N-[4-(4-amino-6-bromo-thieno[2,3-d]pyrimidin-5-yl)phenyl]-2-(3-chlorophenyl)acetamide

> <PUBCHEM_IUPAC_CAS_NAME>
N-[4-(4-amino-6-bromo-5-thieno[2,3-d]pyrimidinyl)phenyl]-2-(3-chlorophenyl)acetamide

> <PUBCHEM_IUPAC_NAME_MARKUP>
<I>N</I>-[4-(4-amino-6-bromothieno[2,3-d]pyrimidin-5-yl)phenyl]-2-(3-chlorophenyl)acetamide

> <PUBCHEM_IUPAC_NAME>
N-[4-(4-amino-6-bromothieno[2,3-d]pyrimidin-5-yl)phenyl]-2-(3-chlorophenyl)acetamide

> <PUBCHEM_IUPAC_SYSTEMATIC_NAME>
N-[4-(4-azanyl-6-bromanyl-thieno[2,3-d]pyrimidin-5-yl)phenyl]-2-(3-chlorophenyl)ethanamide

> <PUBCHEM_IUPAC_TRADITIONAL_NAME>
N-[4-(4-amino-6-bromo-thieno[2,3-d]pyrimidin-5-yl)phenyl]-2-(3-chlorophenyl)acetamide

> <PUBCHEM_IUPAC_INCHI>
InChI=1S/C20H14BrClN4OS/c21-18-16(17-19(23)24-10-25-20(17)28-18)12-4-6-14(7-5-12)26-15(27)9-11-2-1-3-13(22)8-11/h1-8,10H,9H2,(H,26,27)(H2,23,24,25)

> <PUBCHEM_IUPAC_INCHIKEY>
KWSZYBNXNYRQCC-UHFFFAOYSA-N

> <PUBCHEM_XLOGP3_AA>
5.3

> <PUBCHEM_EXACT_MASS>
471.97602

> <PUBCHEM_MOLECULAR_FORMULA>
C20H14BrClN4OS

> <PUBCHEM_MOLECULAR_WEIGHT>
473.8

> <PUBCHEM_SMILES>
C1=CC(=CC(=C1)Cl)CC(=O)NC2=CC=C(C=C2)C3=C(SC4=NC=NC(=C34)N)Br

> <PUBCHEM_OPENEYE_CAN_SMILES>
C1=CC(=CC(=C1)Cl)CC(=O)NC2=CC=C(C=C2)C3=C(SC4=NC=NC(=C34)N)Br

> <PUBCHEM_OPENEYE_ISO_SMILES>
C1=CC(=CC(=C1)Cl)CC(=O)NC2=CC=C(C=C2)C3=C(SC4=NC=NC(=C34)N)Br

> <PUBCHEM_CACTVS_TPSA>
109

> <PUBCHEM_MONOISOTOPIC_WEIGHT>
471.97602

> <PUBCHEM_TOTAL_CHARGE>
0

> <PUBCHEM_HEAVY_ATOM_COUNT>
28

> <PUBCHEM_ATOM_DEF_STEREO_COUNT>
0

> <PUBCHEM_ATOM_UDEF_STEREO_COUNT>
0

> <PUBCHEM_BOND_DEF_STEREO_COUNT>
0

> <PUBCHEM_BOND_UDEF_STEREO_COUNT>
0

> <PUBCHEM_ISOTOPIC_ATOM_COUNT>
0

> <PUBCHEM_COMPONENT_COUNT>
1

> <PUBCHEM_CACTVS_TAUTO_COUNT>
-1

> <PUBCHEM_COORDINATE_TYPE>
1
5
255

> <PUBCHEM_BONDANNOTATIONS>
10  13  8
10  14  8
11  15  8
11  19  8
12  17  8
12  18  8
13  17  8
14  18  8
21  23  8
21  24  8
23  26  8
24  27  8
26  28  8
27  28  8
3  15  8
3  16  8
6  15  8
6  25  8
7  19  8
7  25  8
9  11  8
9  16  8

$$$$
