24905311
  -OEChem-03192523542D

 42 45  0     1  0  0  0  0  0999 V2000
    5.9209    3.9129    0.0000 O   0  0  0  0  0  0  0  0  0  0  0  0
    7.2566    2.4243    0.0000 O   0  0  0  0  0  0  0  0  0  0  0  0
    4.6783   -1.4986    0.0000 N   0  0  0  0  0  0  0  0  0  0  0  0
    4.9917   -4.0672    0.0000 N   0  0  0  0  0  0  0  0  0  0  0  0
    5.2619   -0.6939    0.0000 N   0  0  0  0  0  0  0  0  0  0  0  0
    2.8660   -1.6939    0.0000 N   0  0  0  0  0  0  0  0  0  0  0  0
    2.0000   -0.1939    0.0000 N   0  0  0  0  0  0  0  0  0  0  0  0
    2.8660    1.3061    0.0000 N   0  0  0  0  0  0  0  0  0  0  0  0
    4.9889   -2.4492    0.0000 C   0  0  2  0  0  0  0  0  0  0  0  0
    5.9405   -2.7566    0.0000 C   0  0  0  0  0  0  0  0  0  0  0  0
    4.4026   -3.2592    0.0000 C   0  0  0  0  0  0  0  0  0  0  0  0
    5.9422   -3.7565    0.0000 C   0  0  0  0  0  0  0  0  0  0  0  0
    3.7320   -1.1939    0.0000 C   0  0  0  0  0  0  0  0  0  0  0  0
    3.7320   -0.1939    0.0000 C   0  0  0  0  0  0  0  0  0  0  0  0
    4.6783    0.1108    0.0000 C   0  0  0  0  0  0  0  0  0  0  0  0
    4.9889    1.0613    0.0000 C   0  0  0  0  0  0  0  0  0  0  0  0
    2.8660    0.3061    0.0000 C   0  0  0  0  0  0  0  0  0  0  0  0
    5.9674    1.2676    0.0000 C   0  0  0  0  0  0  0  0  0  0  0  0
    4.3211    1.8056    0.0000 C   0  0  0  0  0  0  0  0  0  0  0  0
    2.0000   -1.1939    0.0000 C   0  0  0  0  0  0  0  0  0  0  0  0
    6.2781    2.2181    0.0000 C   0  0  0  0  0  0  0  0  0  0  0  0
    4.6318    2.7562    0.0000 C   0  0  0  0  0  0  0  0  0  0  0  0
    5.6103    2.9624    0.0000 C   0  0  0  0  0  0  0  0  0  0  0  0
    5.2531    4.6572    0.0000 C   0  0  0  0  0  0  0  0  0  0  0  0
    5.4266   -2.0100    0.0000 H   0  0  0  0  0  0  0  0  0  0  0  0
    6.5572   -2.8203    0.0000 H   0  0  0  0  0  0  0  0  0  0  0  0
    6.0684   -2.1499    0.0000 H   0  0  0  0  0  0  0  0  0  0  0  0
    3.9411   -2.8451    0.0000 H   0  0  0  0  0  0  0  0  0  0  0  0
    3.9425   -3.6749    0.0000 H   0  0  0  0  0  0  0  0  0  0  0  0
    6.0722   -4.3628    0.0000 H   0  0  0  0  0  0  0  0  0  0  0  0
    6.5587   -3.6907    0.0000 H   0  0  0  0  0  0  0  0  0  0  0  0
    4.8012   -4.6572    0.0000 H   0  0  0  0  0  0  0  0  0  0  0  0
    6.3815    0.8061    0.0000 H   0  0  0  0  0  0  0  0  0  0  0  0
    3.7144    1.6778    0.0000 H   0  0  0  0  0  0  0  0  0  0  0  0
    1.4631   -1.5039    0.0000 H   0  0  0  0  0  0  0  0  0  0  0  0
    2.3291    1.6161    0.0000 H   0  0  0  0  0  0  0  0  0  0  0  0
    3.4030    1.6161    0.0000 H   0  0  0  0  0  0  0  0  0  0  0  0
    4.2177    3.2176    0.0000 H   0  0  0  0  0  0  0  0  0  0  0  0
    7.6707    1.9628    0.0000 H   0  0  0  0  0  0  0  0  0  0  0  0
    5.7145    5.0713    0.0000 H   0  0  0  0  0  0  0  0  0  0  0  0
    4.8390    5.1187    0.0000 H   0  0  0  0  0  0  0  0  0  0  0  0
    4.7916    4.2431    0.0000 H   0  0  0  0  0  0  0  0  0  0  0  0
  1 23  1  0  0  0  0
  1 24  1  0  0  0  0
  2 21  1  0  0  0  0
  2 39  1  0  0  0  0
  3  5  1  0  0  0  0
  9  3  1  6  0  0  0
  3 13  1  0  0  0  0
  4 11  1  0  0  0  0
  4 12  1  0  0  0  0
  4 32  1  0  0  0  0
  5 15  2  0  0  0  0
  6 13  2  0  0  0  0
  6 20  1  0  0  0  0
  7 17  1  0  0  0  0
  7 20  2  0  0  0  0
  8 17  1  0  0  0  0
  8 36  1  0  0  0  0
  8 37  1  0  0  0  0
  9 10  1  0  0  0  0
  9 11  1  0  0  0  0
  9 25  1  0  0  0  0
 10 12  1  0  0  0  0
 10 26  1  0  0  0  0
 10 27  1  0  0  0  0
 11 28  1  0  0  0  0
 11 29  1  0  0  0  0
 12 30  1  0  0  0  0
 12 31  1  0  0  0  0
 13 14  1  0  0  0  0
 14 15  1  0  0  0  0
 14 17  2  0  0  0  0
 15 16  1  0  0  0  0
 16 18  2  0  0  0  0
 16 19  1  0  0  0  0
 18 21  1  0  0  0  0
 18 33  1  0  0  0  0
 19 22  2  0  0  0  0
 19 34  1  0  0  0  0
 20 35  1  0  0  0  0
 21 23  2  0  0  0  0
 22 23  1  0  0  0  0
 22 38  1  0  0  0  0
 24 40  1  0  0  0  0
 24 41  1  0  0  0  0
 24 42  1  0  0  0  0
M  END
> <PUBCHEM_COMPOUND_CID>
24905311

> <PUBCHEM_COMPOUND_CANONICALIZED>
1

> <PUBCHEM_CACTVS_COMPLEXITY>
441

> <PUBCHEM_CACTVS_HBOND_ACCEPTOR>
7

> <PUBCHEM_CACTVS_HBOND_DONOR>
3

> <PUBCHEM_CACTVS_ROTATABLE_BOND>
3

> <PUBCHEM_CACTVS_SUBSKEYS>
AAADceB7sAAAAAAAAAAAAAAAAAAAAWLAAAA8QAAAAAAAAFgB/AAAHgAYCAAADCzBnwY3tt7IFgCiAyZjZACSjCsxoKAd2KAuzJiNbqLG+duU9Cts2BPL+Cew0PEOIAABAAAAQABAAAIAAACAAAAAAAAAAA==

> <PUBCHEM_IUPAC_OPENEYE_NAME>
5-[4-amino-1-[(3R)-pyrrolidin-3-yl]pyrazolo[3,4-d]pyrimidin-3-yl]-2-methoxy-phenol

> <PUBCHEM_IUPAC_CAS_NAME>
5-[4-amino-1-[(3R)-3-pyrrolidinyl]-3-pyrazolo[3,4-d]pyrimidinyl]-2-methoxyphenol

> <PUBCHEM_IUPAC_NAME_MARKUP>
5-[4-amino-1-[(3<I>R</I>)-pyrrolidin-3-yl]pyrazolo[3,4-d]pyrimidin-3-yl]-2-methoxyphenol

> <PUBCHEM_IUPAC_NAME>
5-[4-amino-1-[(3R)-pyrrolidin-3-yl]pyrazolo[3,4-d]pyrimidin-3-yl]-2-methoxyphenol

> <PUBCHEM_IUPAC_SYSTEMATIC_NAME>
5-[4-azanyl-1-[(3R)-pyrrolidin-3-yl]pyrazolo[3,4-d]pyrimidin-3-yl]-2-methoxy-phenol

> <PUBCHEM_IUPAC_TRADITIONAL_NAME>
5-[4-amino-1-[(3R)-pyrrolidin-3-yl]pyrazolo[3,4-d]pyrimidin-3-yl]-2-methoxy-phenol

> <PUBCHEM_IUPAC_INCHI>
InChI=1S/C16H18N6O2/c1-24-12-3-2-9(6-11(12)23)14-13-15(17)19-8-20-16(13)22(21-14)10-4-5-18-7-10/h2-3,6,8,10,18,23H,4-5,7H2,1H3,(H2,17,19,20)/t10-/m1/s1

> <PUBCHEM_IUPAC_INCHIKEY>
BJNPYRHGWJVECX-SNVBAGLBSA-N

> <PUBCHEM_XLOGP3_AA>
0.8

> <PUBCHEM_EXACT_MASS>
326.14912384

> <PUBCHEM_MOLECULAR_FORMULA>
C16H18N6O2

> <PUBCHEM_MOLECULAR_WEIGHT>
326.35

> <PUBCHEM_SMILES>
COC1=C(C=C(C=C1)C2=NN(C3=NC=NC(=C23)N)[C@@H]4CCNC4)O

> <PUBCHEM_OPENEYE_CAN_SMILES>
COC1=C(C=C(C=C1)C2=NN(C3=NC=NC(=C23)N)C4CCNC4)O

> <PUBCHEM_OPENEYE_ISO_SMILES>
COC1=C(C=C(C=C1)C2=NN(C3=NC=NC(=C23)N)[C@@H]4CCNC4)O

> <PUBCHEM_CACTVS_TPSA>
111

> <PUBCHEM_MONOISOTOPIC_WEIGHT>
326.14912384

> <PUBCHEM_TOTAL_CHARGE>
0

> <PUBCHEM_HEAVY_ATOM_COUNT>
24

> <PUBCHEM_ATOM_DEF_STEREO_COUNT>
1

> <PUBCHEM_ATOM_UDEF_STEREO_COUNT>
0

> <PUBCHEM_BOND_DEF_STEREO_COUNT>
0

> <PUBCHEM_BOND_UDEF_STEREO_COUNT>
0

> <PUBCHEM_ISOTOPIC_ATOM_COUNT>
0

> <PUBCHEM_COMPONENT_COUNT>
1

> <PUBCHEM_CACTVS_TAUTO_COUNT>
-1

> <PUBCHEM_COORDINATE_TYPE>
1
5
255

> <PUBCHEM_BONDANNOTATIONS>
13  14  8
14  15  8
14  17  8
16  18  8
16  19  8
18  21  8
19  22  8
21  23  8
22  23  8
3  13  8
3  5  8
9  3  6
5  15  8
6  13  8
6  20  8
7  17  8
7  20  8

$$$$
