11467730
  -OEChem-03202504412D

 84 87  0     1  0  0  0  0  0999 V2000
    6.3301    2.5236    0.0000 S   0  0  0  0  0  0  0  0  0  0  0  0
    7.1391    0.9358    0.0000 S   0  0  0  0  0  0  0  0  0  0  0  0
    3.7320    6.0236    0.0000 O   0  0  0  0  0  0  0  0  0  0  0  0
    8.9282    7.0236    0.0000 O   0  0  0  0  0  0  0  0  0  0  0  0
    2.8660    4.5236    0.0000 O   0  0  0  0  0  0  0  0  0  0  0  0
    6.0166   -1.8424    0.0000 O   0  0  0  0  0  0  0  0  0  0  0  0
    8.9556   -5.8874    0.0000 N   0  0  0  0  0  0  0  0  0  0  0  0
    5.4641    6.0236    0.0000 N   0  0  0  0  0  0  0  0  0  0  0  0
    7.1962    7.0236    0.0000 N   0  0  0  0  0  0  0  0  0  0  0  0
    7.4179   -0.8243    0.0000 N   0  0  0  0  0  0  0  0  0  0  0  0
    5.8301   -0.0153    0.0000 N   0  0  0  0  0  0  0  0  0  0  0  0
    9.1366   -7.6100    0.0000 C   0  0  0  0  0  0  0  0  0  0  0  0
    9.5434   -6.6965    0.0000 C   0  0  3  0  0  0  0  0  0  0  0  0
    8.7299   -8.5236    0.0000 C   0  0  0  0  0  0  0  0  0  0  0  0
   10.0502   -8.0168    0.0000 C   0  0  0  0  0  0  0  0  0  0  0  0
    8.2231   -7.2033    0.0000 C   0  0  0  0  0  0  0  0  0  0  0  0
   10.5379   -6.5919    0.0000 C   0  0  0  0  0  0  0  0  0  0  0  0
    5.4641    7.0236    0.0000 C   0  0  0  0  0  0  0  0  0  0  0  0
    6.3301    5.5236    0.0000 C   0  0  0  0  0  0  0  0  0  0  0  0
    6.3301    7.5236    0.0000 C   0  0  0  0  0  0  0  0  0  0  0  0
    7.1962    6.0236    0.0000 C   0  0  0  0  0  0  0  0  0  0  0  0
    9.3623   -4.9739    0.0000 C   0  0  0  0  0  0  0  0  0  0  0  0
    8.7745   -4.1649    0.0000 C   0  0  0  0  0  0  0  0  0  0  0  0
    4.5981    5.5236    0.0000 C   0  0  0  0  0  0  0  0  0  0  0  0
    8.0622    7.5236    0.0000 C   0  0  0  0  0  0  0  0  0  0  0  0
    4.5981    4.5236    0.0000 C   0  0  0  0  0  0  0  0  0  0  0  0
    9.1813   -3.2514    0.0000 C   0  0  0  0  0  0  0  0  0  0  0  0
    7.7800   -4.2694    0.0000 C   0  0  0  0  0  0  0  0  0  0  0  0
    8.0622    8.5236    0.0000 C   0  0  0  0  0  0  0  0  0  0  0  0
    3.7320    4.0236    0.0000 C   0  0  0  0  0  0  0  0  0  0  0  0
    5.4641    4.0236    0.0000 C   0  0  0  0  0  0  0  0  0  0  0  0
    8.5935   -2.4423    0.0000 C   0  0  0  0  0  0  0  0  0  0  0  0
    7.1922   -3.4604    0.0000 C   0  0  0  0  0  0  0  0  0  0  0  0
    7.5990   -2.5469    0.0000 C   0  0  0  0  0  0  0  0  0  0  0  0
    5.4641    3.0236    0.0000 C   0  0  0  0  0  0  0  0  0  0  0  0
    3.7320    3.0236    0.0000 C   0  0  0  0  0  0  0  0  0  0  0  0
    4.5981    2.5236    0.0000 C   0  0  0  0  0  0  0  0  0  0  0  0
    7.0112   -1.7378    0.0000 C   0  0  0  0  0  0  0  0  0  0  0  0
    4.5981    1.5236    0.0000 C   0  0  0  0  0  0  0  0  0  0  0  0
    2.0000    4.0236    0.0000 C   0  0  0  0  0  0  0  0  0  0  0  0
    6.3301    1.5236    0.0000 C   0  0  0  0  0  0  0  0  0  0  0  0
    6.8301   -0.0153    0.0000 C   0  0  0  0  0  0  0  0  0  0  0  0
    5.5211    0.9358    0.0000 C   0  0  0  0  0  0  0  0  0  0  0  0
    9.7955   -6.1301    0.0000 H   0  0  0  0  0  0  0  0  0  0  0  0
    8.1635   -8.2714    0.0000 H   0  0  0  0  0  0  0  0  0  0  0  0
    8.4777   -9.0900    0.0000 H   0  0  0  0  0  0  0  0  0  0  0  0
    9.2963   -8.7757    0.0000 H   0  0  0  0  0  0  0  0  0  0  0  0
    9.7980   -8.5832    0.0000 H   0  0  0  0  0  0  0  0  0  0  0  0
   10.6166   -8.2689    0.0000 H   0  0  0  0  0  0  0  0  0  0  0  0
   10.3024   -7.4504    0.0000 H   0  0  0  0  0  0  0  0  0  0  0  0
    8.4753   -6.6369    0.0000 H   0  0  0  0  0  0  0  0  0  0  0  0
    7.6567   -6.9511    0.0000 H   0  0  0  0  0  0  0  0  0  0  0  0
    7.9709   -7.7697    0.0000 H   0  0  0  0  0  0  0  0  0  0  0  0
    8.3390   -5.9523    0.0000 H   0  0  0  0  0  0  0  0  0  0  0  0
   10.6027   -7.2086    0.0000 H   0  0  0  0  0  0  0  0  0  0  0  0
   11.1545   -6.5271    0.0000 H   0  0  0  0  0  0  0  0  0  0  0  0
   10.4731   -5.9753    0.0000 H   0  0  0  0  0  0  0  0  0  0  0  0
    5.2520    7.6062    0.0000 H   0  0  0  0  0  0  0  0  0  0  0  0
    4.8535    6.9159    0.0000 H   0  0  0  0  0  0  0  0  0  0  0  0
    5.9316    5.0486    0.0000 H   0  0  0  0  0  0  0  0  0  0  0  0
    6.7287    5.0486    0.0000 H   0  0  0  0  0  0  0  0  0  0  0  0
    6.7287    7.9985    0.0000 H   0  0  0  0  0  0  0  0  0  0  0  0
    5.9316    7.9985    0.0000 H   0  0  0  0  0  0  0  0  0  0  0  0
    7.4082    5.4410    0.0000 H   0  0  0  0  0  0  0  0  0  0  0  0
    7.8067    6.1312    0.0000 H   0  0  0  0  0  0  0  0  0  0  0  0
    9.8763   -5.3206    0.0000 H   0  0  0  0  0  0  0  0  0  0  0  0
    9.7930   -4.5279    0.0000 H   0  0  0  0  0  0  0  0  0  0  0  0
    9.7979   -3.1865    0.0000 H   0  0  0  0  0  0  0  0  0  0  0  0
    7.5278   -4.8358    0.0000 H   0  0  0  0  0  0  0  0  0  0  0  0
    8.6822    8.5236    0.0000 H   0  0  0  0  0  0  0  0  0  0  0  0
    8.0622    9.1436    0.0000 H   0  0  0  0  0  0  0  0  0  0  0  0
    7.4422    8.5236    0.0000 H   0  0  0  0  0  0  0  0  0  0  0  0
    6.0010    4.3336    0.0000 H   0  0  0  0  0  0  0  0  0  0  0  0
    8.8457   -1.8759    0.0000 H   0  0  0  0  0  0  0  0  0  0  0  0
    6.5756   -3.5252    0.0000 H   0  0  0  0  0  0  0  0  0  0  0  0
    3.1951    2.7136    0.0000 H   0  0  0  0  0  0  0  0  0  0  0  0
    3.9781    1.5236    0.0000 H   0  0  0  0  0  0  0  0  0  0  0  0
    4.5981    0.9036    0.0000 H   0  0  0  0  0  0  0  0  0  0  0  0
    5.2181    1.5236    0.0000 H   0  0  0  0  0  0  0  0  0  0  0  0
    8.0345   -0.7595    0.0000 H   0  0  0  0  0  0  0  0  0  0  0  0
    1.6900    4.5605    0.0000 H   0  0  0  0  0  0  0  0  0  0  0  0
    1.4631    3.7136    0.0000 H   0  0  0  0  0  0  0  0  0  0  0  0
    2.3100    3.4866    0.0000 H   0  0  0  0  0  0  0  0  0  0  0  0
    4.9315    1.1274    0.0000 H   0  0  0  0  0  0  0  0  0  0  0  0
  1 35  1  0  0  0  0
  1 41  1  0  0  0  0
  2 41  1  0  0  0  0
  2 42  1  0  0  0  0
  3 24  2  0  0  0  0
  4 25  2  0  0  0  0
  5 30  1  0  0  0  0
  5 40  1  0  0  0  0
  6 38  2  0  0  0  0
  7 13  1  0  0  0  0
  7 22  1  0  0  0  0
  7 54  1  0  0  0  0
  8 18  1  0  0  0  0
  8 19  1  0  0  0  0
  8 24  1  0  0  0  0
  9 20  1  0  0  0  0
  9 21  1  0  0  0  0
  9 25  1  0  0  0  0
 10 38  1  0  0  0  0
 10 42  1  0  0  0  0
 10 80  1  0  0  0  0
 11 42  2  0  0  0  0
 11 43  1  0  0  0  0
 12 13  1  0  0  0  0
 12 14  1  0  0  0  0
 12 15  1  0  0  0  0
 12 16  1  0  0  0  0
 13 17  1  0  0  0  0
 13 44  1  0  0  0  0
 14 45  1  0  0  0  0
 14 46  1  0  0  0  0
 14 47  1  0  0  0  0
 15 48  1  0  0  0  0
 15 49  1  0  0  0  0
 15 50  1  0  0  0  0
 16 51  1  0  0  0  0
 16 52  1  0  0  0  0
 16 53  1  0  0  0  0
 17 55  1  0  0  0  0
 17 56  1  0  0  0  0
 17 57  1  0  0  0  0
 18 20  1  0  0  0  0
 18 58  1  0  0  0  0
 18 59  1  0  0  0  0
 19 21  1  0  0  0  0
 19 60  1  0  0  0  0
 19 61  1  0  0  0  0
 20 62  1  0  0  0  0
 20 63  1  0  0  0  0
 21 64  1  0  0  0  0
 21 65  1  0  0  0  0
 22 23  1  0  0  0  0
 22 66  1  0  0  0  0
 22 67  1  0  0  0  0
 23 27  2  0  0  0  0
 23 28  1  0  0  0  0
 24 26  1  0  0  0  0
 25 29  1  0  0  0  0
 26 30  2  0  0  0  0
 26 31  1  0  0  0  0
 27 32  1  0  0  0  0
 27 68  1  0  0  0  0
 28 33  2  0  0  0  0
 28 69  1  0  0  0  0
 29 70  1  0  0  0  0
 29 71  1  0  0  0  0
 29 72  1  0  0  0  0
 30 36  1  0  0  0  0
 31 35  2  0  0  0  0
 31 73  1  0  0  0  0
 32 34  2  0  0  0  0
 32 74  1  0  0  0  0
 33 34  1  0  0  0  0
 33 75  1  0  0  0  0
 34 38  1  0  0  0  0
 35 37  1  0  0  0  0
 36 37  2  0  0  0  0
 36 76  1  0  0  0  0
 37 39  1  0  0  0  0
 39 77  1  0  0  0  0
 39 78  1  0  0  0  0
 39 79  1  0  0  0  0
 40 81  1  0  0  0  0
 40 82  1  0  0  0  0
 40 83  1  0  0  0  0
 41 43  2  0  0  0  0
 43 84  1  0  0  0  0
M  END
> <PUBCHEM_COMPOUND_CID>
11467730

> <PUBCHEM_COMPOUND_CANONICALIZED>
1

> <PUBCHEM_CACTVS_COMPLEXITY>
949

> <PUBCHEM_CACTVS_HBOND_ACCEPTOR>
8

> <PUBCHEM_CACTVS_HBOND_DONOR>
2

> <PUBCHEM_CACTVS_ROTATABLE_BOND>
10

> <PUBCHEM_CACTVS_SUBSKEYS>
AAADcfB/uABgAAAAAAAAAAAAAAAAAWAAAAA8YIAAAAAAAAAB0AAAHgQQAAAADizB2gY/l5PIFAisAjF3dACC+al1KDlJyJ0ODMiMZjakvRuUMWhu9xOoqaeYyDCPQIABgAAMAACBAAMAABgAAAAAAAAAAA==

> <PUBCHEM_IUPAC_OPENEYE_NAME>
N-[5-[5-(4-acetylpiperazine-1-carbonyl)-4-methoxy-2-methyl-phenyl]sulfanylthiazol-2-yl]-4-[(1,2,2-trimethylpropylamino)methyl]benzamide

> <PUBCHEM_IUPAC_CAS_NAME>
N-[5-[[5-[(4-acetyl-1-piperazinyl)-oxomethyl]-4-methoxy-2-methylphenyl]thio]-2-thiazolyl]-4-[(3,3-dimethylbutan-2-ylamino)methyl]benzamide

> <PUBCHEM_IUPAC_NAME_MARKUP>
<I>N</I>-[5-[5-(4-acetylpiperazine-1-carbonyl)-4-methoxy-2-methylphenyl]sulfanyl-1,3-thiazol-2-yl]-4-[(3,3-dimethylbutan-2-ylamino)methyl]benzamide

> <PUBCHEM_IUPAC_NAME>
N-[5-[5-(4-acetylpiperazine-1-carbonyl)-4-methoxy-2-methylphenyl]sulfanyl-1,3-thiazol-2-yl]-4-[(3,3-dimethylbutan-2-ylamino)methyl]benzamide

> <PUBCHEM_IUPAC_SYSTEMATIC_NAME>
4-[(3,3-dimethylbutan-2-ylamino)methyl]-N-[5-[5-(4-ethanoylpiperazin-1-yl)carbonyl-4-methoxy-2-methyl-phenyl]sulfanyl-1,3-thiazol-2-yl]benzamide

> <PUBCHEM_IUPAC_TRADITIONAL_NAME>
N-[5-[[5-(4-acetylpiperazine-1-carbonyl)-4-methoxy-2-methyl-phenyl]thio]thiazol-2-yl]-4-[(1,2,2-trimethylpropylamino)methyl]benzamide

> <PUBCHEM_IUPAC_INCHI>
InChI=1S/C32H41N5O4S2/c1-20-16-26(41-7)25(30(40)37-14-12-36(13-15-37)22(3)38)17-27(20)42-28-19-34-31(43-28)35-29(39)24-10-8-23(9-11-24)18-33-21(2)32(4,5)6/h8-11,16-17,19,21,33H,12-15,18H2,1-7H3,(H,34,35,39)

> <PUBCHEM_IUPAC_INCHIKEY>
ZHXNIYGJAOPMSO-UHFFFAOYSA-N

> <PUBCHEM_XLOGP3_AA>
5.1

> <PUBCHEM_EXACT_MASS>
623.25999715

> <PUBCHEM_MOLECULAR_FORMULA>
C32H41N5O4S2

> <PUBCHEM_MOLECULAR_WEIGHT>
623.8

> <PUBCHEM_SMILES>
CC1=CC(=C(C=C1SC2=CN=C(S2)NC(=O)C3=CC=C(C=C3)CNC(C)C(C)(C)C)C(=O)N4CCN(CC4)C(=O)C)OC

> <PUBCHEM_OPENEYE_CAN_SMILES>
CC1=CC(=C(C=C1SC2=CN=C(S2)NC(=O)C3=CC=C(C=C3)CNC(C)C(C)(C)C)C(=O)N4CCN(CC4)C(=O)C)OC

> <PUBCHEM_OPENEYE_ISO_SMILES>
CC1=CC(=C(C=C1SC2=CN=C(S2)NC(=O)C3=CC=C(C=C3)CNC(C)C(C)(C)C)C(=O)N4CCN(CC4)C(=O)C)OC

> <PUBCHEM_CACTVS_TPSA>
157

> <PUBCHEM_MONOISOTOPIC_WEIGHT>
623.25999715

> <PUBCHEM_TOTAL_CHARGE>
0

> <PUBCHEM_HEAVY_ATOM_COUNT>
43

> <PUBCHEM_ATOM_DEF_STEREO_COUNT>
0

> <PUBCHEM_ATOM_UDEF_STEREO_COUNT>
1

> <PUBCHEM_BOND_DEF_STEREO_COUNT>
0

> <PUBCHEM_BOND_UDEF_STEREO_COUNT>
0

> <PUBCHEM_ISOTOPIC_ATOM_COUNT>
0

> <PUBCHEM_COMPONENT_COUNT>
1

> <PUBCHEM_CACTVS_TAUTO_COUNT>
-1

> <PUBCHEM_COORDINATE_TYPE>
1
5
255

> <PUBCHEM_BONDANNOTATIONS>
11  42  8
11  43  8
13  17  3
2  41  8
2  42  8
23  27  8
23  28  8
26  30  8
26  31  8
27  32  8
28  33  8
30  36  8
31  35  8
32  34  8
33  34  8
35  37  8
36  37  8
41  43  8

$$$$
