11463885
  -OEChem-03202502032D

 49 52  0     0  0  0  0  0  0999 V2000
    2.0000    5.0000    0.0000 F   0  0  0  0  0  0  0  0  0  0  0  0
    8.1424   -4.3047    0.0000 O   0  0  0  0  0  0  0  0  0  0  0  0
    6.3301   -5.5000    0.0000 O   0  0  0  0  0  0  0  0  0  0  0  0
    4.5981    1.5000    0.0000 O   0  0  0  0  0  0  0  0  0  0  0  0
    8.7260   -3.5000    0.0000 N   0  0  0  0  0  0  0  0  0  0  0  0
    6.3301    1.5000    0.0000 N   0  0  0  0  0  0  0  0  0  0  0  0
    8.4530   -1.7448    0.0000 N   0  0  0  0  0  0  0  0  0  0  0  0
    5.4641    3.0000    0.0000 N   0  0  0  0  0  0  0  0  0  0  0  0
    6.3301   -2.5000    0.0000 C   0  0  0  0  0  0  0  0  0  0  0  0
    7.1962   -3.0000    0.0000 C   0  0  0  0  0  0  0  0  0  0  0  0
    6.3301   -1.5000    0.0000 C   0  0  0  0  0  0  0  0  0  0  0  0
    7.1962   -4.0000    0.0000 C   0  0  0  0  0  0  0  0  0  0  0  0
    5.4641   -3.0000    0.0000 C   0  0  0  0  0  0  0  0  0  0  0  0
    6.3301   -4.5000    0.0000 C   0  0  0  0  0  0  0  0  0  0  0  0
    8.1424   -2.6953    0.0000 C   0  0  0  0  0  0  0  0  0  0  0  0
    5.4641   -4.0000    0.0000 C   0  0  0  0  0  0  0  0  0  0  0  0
    5.4641   -1.0000    0.0000 C   0  0  0  0  0  0  0  0  0  0  0  0
    7.1962   -1.0000    0.0000 C   0  0  0  0  0  0  0  0  0  0  0  0
    6.3301    0.5000    0.0000 C   0  0  0  0  0  0  0  0  0  0  0  0
    5.4641   -0.0000    0.0000 C   0  0  0  0  0  0  0  0  0  0  0  0
    7.1962    0.0000    0.0000 C   0  0  0  0  0  0  0  0  0  0  0  0
    4.5981    3.5000    0.0000 C   0  0  0  0  0  0  0  0  0  0  0  0
    5.4641    2.0000    0.0000 C   0  0  0  0  0  0  0  0  0  0  0  0
    3.7320    5.0000    0.0000 C   0  0  0  0  0  0  0  0  0  0  0  0
    4.5981    4.5000    0.0000 C   0  0  0  0  0  0  0  0  0  0  0  0
    3.7320    3.0000    0.0000 C   0  0  0  0  0  0  0  0  0  0  0  0
    2.8660    4.5000    0.0000 C   0  0  0  0  0  0  0  0  0  0  0  0
    2.8660    3.5000    0.0000 C   0  0  0  0  0  0  0  0  0  0  0  0
    5.4641   -6.0000    0.0000 C   0  0  0  0  0  0  0  0  0  0  0  0
    3.7320    6.0000    0.0000 C   0  0  0  0  0  0  0  0  0  0  0  0
    4.9272   -2.6900    0.0000 H   0  0  0  0  0  0  0  0  0  0  0  0
    4.9272   -4.3100    0.0000 H   0  0  0  0  0  0  0  0  0  0  0  0
    4.9272   -1.3100    0.0000 H   0  0  0  0  0  0  0  0  0  0  0  0
    7.7331   -1.3100    0.0000 H   0  0  0  0  0  0  0  0  0  0  0  0
    4.9272    0.3100    0.0000 H   0  0  0  0  0  0  0  0  0  0  0  0
    7.7331    0.3100    0.0000 H   0  0  0  0  0  0  0  0  0  0  0  0
    6.8671    1.8100    0.0000 H   0  0  0  0  0  0  0  0  0  0  0  0
    9.0597   -1.6169    0.0000 H   0  0  0  0  0  0  0  0  0  0  0  0
    8.0390   -1.2833    0.0000 H   0  0  0  0  0  0  0  0  0  0  0  0
    6.0010    3.3100    0.0000 H   0  0  0  0  0  0  0  0  0  0  0  0
    5.1350    4.8100    0.0000 H   0  0  0  0  0  0  0  0  0  0  0  0
    3.7320    2.3800    0.0000 H   0  0  0  0  0  0  0  0  0  0  0  0
    2.3291    3.1900    0.0000 H   0  0  0  0  0  0  0  0  0  0  0  0
    5.1541   -5.4631    0.0000 H   0  0  0  0  0  0  0  0  0  0  0  0
    4.9272   -6.3100    0.0000 H   0  0  0  0  0  0  0  0  0  0  0  0
    5.7741   -6.5369    0.0000 H   0  0  0  0  0  0  0  0  0  0  0  0
    4.3520    6.0000    0.0000 H   0  0  0  0  0  0  0  0  0  0  0  0
    3.7320    6.6200    0.0000 H   0  0  0  0  0  0  0  0  0  0  0  0
    3.1120    6.0000    0.0000 H   0  0  0  0  0  0  0  0  0  0  0  0
  1 27  1  0  0  0  0
  2  5  1  0  0  0  0
  2 12  1  0  0  0  0
  3 14  1  0  0  0  0
  3 29  1  0  0  0  0
  4 23  2  0  0  0  0
  5 15  2  0  0  0  0
  6 19  1  0  0  0  0
  6 23  1  0  0  0  0
  6 37  1  0  0  0  0
  7 15  1  0  0  0  0
  7 38  1  0  0  0  0
  7 39  1  0  0  0  0
  8 22  1  0  0  0  0
  8 23  1  0  0  0  0
  8 40  1  0  0  0  0
  9 10  2  0  0  0  0
  9 11  1  0  0  0  0
  9 13  1  0  0  0  0
 10 12  1  0  0  0  0
 10 15  1  0  0  0  0
 11 17  2  0  0  0  0
 11 18  1  0  0  0  0
 12 14  2  0  0  0  0
 13 16  2  0  0  0  0
 13 31  1  0  0  0  0
 14 16  1  0  0  0  0
 16 32  1  0  0  0  0
 17 20  1  0  0  0  0
 17 33  1  0  0  0  0
 18 21  2  0  0  0  0
 18 34  1  0  0  0  0
 19 20  2  0  0  0  0
 19 21  1  0  0  0  0
 20 35  1  0  0  0  0
 21 36  1  0  0  0  0
 22 25  2  0  0  0  0
 22 26  1  0  0  0  0
 24 25  1  0  0  0  0
 24 27  2  0  0  0  0
 24 30  1  0  0  0  0
 25 41  1  0  0  0  0
 26 28  2  0  0  0  0
 26 42  1  0  0  0  0
 27 28  1  0  0  0  0
 28 43  1  0  0  0  0
 29 44  1  0  0  0  0
 29 45  1  0  0  0  0
 29 46  1  0  0  0  0
 30 47  1  0  0  0  0
 30 48  1  0  0  0  0
 30 49  1  0  0  0  0
M  END
> <PUBCHEM_COMPOUND_CID>
11463885

> <PUBCHEM_COMPOUND_CANONICALIZED>
1

> <PUBCHEM_CACTVS_COMPLEXITY>
589

> <PUBCHEM_CACTVS_HBOND_ACCEPTOR>
6

> <PUBCHEM_CACTVS_HBOND_DONOR>
3

> <PUBCHEM_CACTVS_ROTATABLE_BOND>
4

> <PUBCHEM_CACTVS_SUBSKEYS>
AAADceB7sQAAAAAAAAAAAAAAAAAAAWAAAAAwYMAAAAAAAFgB9AAAHwAUAAAADAyBmgoz9tLQBACpAqZycgKCCAAlIgAomCFm7NqNJjrEtZ+EMapu1BtK6ee4yPCOqAABQAAYQABQAAKAADCAAAAAAAAAAA==

> <PUBCHEM_IUPAC_OPENEYE_NAME>
1-[4-(3-amino-7-methoxy-1,2-benzoxazol-4-yl)phenyl]-3-(4-fluoro-3-methyl-phenyl)urea

> <PUBCHEM_IUPAC_CAS_NAME>
1-[4-(3-amino-7-methoxy-1,2-benzoxazol-4-yl)phenyl]-3-(4-fluoro-3-methylphenyl)urea

> <PUBCHEM_IUPAC_NAME_MARKUP>
1-[4-(3-amino-7-methoxy-1,2-benzoxazol-4-yl)phenyl]-3-(4-fluoro-3-methylphenyl)urea

> <PUBCHEM_IUPAC_NAME>
1-[4-(3-amino-7-methoxy-1,2-benzoxazol-4-yl)phenyl]-3-(4-fluoro-3-methylphenyl)urea

> <PUBCHEM_IUPAC_SYSTEMATIC_NAME>
1-[4-(3-azanyl-7-methoxy-1,2-benzoxazol-4-yl)phenyl]-3-(4-fluoranyl-3-methyl-phenyl)urea

> <PUBCHEM_IUPAC_TRADITIONAL_NAME>
1-[4-(3-amino-7-methoxy-indoxazen-4-yl)phenyl]-3-(4-fluoro-3-methyl-phenyl)urea

> <PUBCHEM_IUPAC_INCHI>
InChI=1S/C22H19FN4O3/c1-12-11-15(7-9-17(12)23)26-22(28)25-14-5-3-13(4-6-14)16-8-10-18(29-2)20-19(16)21(24)27-30-20/h3-11H,1-2H3,(H2,24,27)(H2,25,26,28)

> <PUBCHEM_IUPAC_INCHIKEY>
ACNCCUVYXQGPKZ-UHFFFAOYSA-N

> <PUBCHEM_XLOGP3_AA>
4

> <PUBCHEM_EXACT_MASS>
406.14411864

> <PUBCHEM_MOLECULAR_FORMULA>
C22H19FN4O3

> <PUBCHEM_MOLECULAR_WEIGHT>
406.4

> <PUBCHEM_SMILES>
CC1=C(C=CC(=C1)NC(=O)NC2=CC=C(C=C2)C3=C4C(=C(C=C3)OC)ON=C4N)F

> <PUBCHEM_OPENEYE_CAN_SMILES>
CC1=C(C=CC(=C1)NC(=O)NC2=CC=C(C=C2)C3=C4C(=C(C=C3)OC)ON=C4N)F

> <PUBCHEM_OPENEYE_ISO_SMILES>
CC1=C(C=CC(=C1)NC(=O)NC2=CC=C(C=C2)C3=C4C(=C(C=C3)OC)ON=C4N)F

> <PUBCHEM_CACTVS_TPSA>
102

> <PUBCHEM_MONOISOTOPIC_WEIGHT>
406.14411864

> <PUBCHEM_TOTAL_CHARGE>
0

> <PUBCHEM_HEAVY_ATOM_COUNT>
30

> <PUBCHEM_ATOM_DEF_STEREO_COUNT>
0

> <PUBCHEM_ATOM_UDEF_STEREO_COUNT>
0

> <PUBCHEM_BOND_DEF_STEREO_COUNT>
0

> <PUBCHEM_BOND_UDEF_STEREO_COUNT>
0

> <PUBCHEM_ISOTOPIC_ATOM_COUNT>
0

> <PUBCHEM_COMPONENT_COUNT>
1

> <PUBCHEM_CACTVS_TAUTO_COUNT>
-1

> <PUBCHEM_COORDINATE_TYPE>
1
5
255

> <PUBCHEM_BONDANNOTATIONS>
10  12  8
10  15  8
11  17  8
11  18  8
12  14  8
13  16  8
14  16  8
17  20  8
18  21  8
19  20  8
19  21  8
2  12  8
2  5  8
22  25  8
22  26  8
24  25  8
24  27  8
26  28  8
27  28  8
5  15  8
9  10  8
9  13  8

$$$$
