23996921
  -OEChem-03202503452D

 48 51  0     1  0  0  0  0  0999 V2000
    7.3301   -1.0000    0.0000 O   0  0  0  0  0  0  0  0  0  0  0  0
    8.1962    0.5000    0.0000 N   0  0  0  0  0  0  0  0  0  0  0  0
   10.7942   -1.0000    0.0000 N   0  0  0  0  0  0  0  0  0  0  0  0
    5.4641    0.5000    0.0000 C   0  0  0  0  0  0  0  0  0  0  0  0
    6.4641    0.5000    0.0000 C   0  0  3  0  0  0  0  0  0  0  0  0
    5.9641    1.3660    0.0000 C   0  0  0  0  0  0  0  0  0  0  0  0
    5.4641   -0.5000    0.0000 C   0  0  0  0  0  0  0  0  0  0  0  0
    4.5981    1.0000    0.0000 C   0  0  0  0  0  0  0  0  0  0  0  0
    7.3301   -0.0000    0.0000 C   0  0  0  0  0  0  0  0  0  0  0  0
    4.5981   -1.0000    0.0000 C   0  0  0  0  0  0  0  0  0  0  0  0
    3.7320    0.5000    0.0000 C   0  0  0  0  0  0  0  0  0  0  0  0
    6.3301   -1.0000    0.0000 C   0  0  0  0  0  0  0  0  0  0  0  0
    4.5981    2.0000    0.0000 C   0  0  0  0  0  0  0  0  0  0  0  0
    4.5981   -2.0000    0.0000 C   0  0  0  0  0  0  0  0  0  0  0  0
    2.8660    1.0000    0.0000 C   0  0  0  0  0  0  0  0  0  0  0  0
    6.3301   -2.0000    0.0000 C   0  0  0  0  0  0  0  0  0  0  0  0
    3.7320    2.5000    0.0000 C   0  0  0  0  0  0  0  0  0  0  0  0
    5.4641   -2.5000    0.0000 C   0  0  0  0  0  0  0  0  0  0  0  0
    2.8660    2.0000    0.0000 C   0  0  0  0  0  0  0  0  0  0  0  0
    9.0622   -0.0000    0.0000 C   0  0  0  0  0  0  0  0  0  0  0  0
    3.7320   -2.5000    0.0000 C   0  0  0  0  0  0  0  0  0  0  0  0
    2.0000    0.5000    0.0000 C   0  0  0  0  0  0  0  0  0  0  0  0
    9.9282    0.5000    0.0000 C   0  0  0  0  0  0  0  0  0  0  0  0
    9.0622   -1.0000    0.0000 C   0  0  0  0  0  0  0  0  0  0  0  0
   10.7942   -0.0000    0.0000 C   0  0  0  0  0  0  0  0  0  0  0  0
    9.9282   -1.5000    0.0000 C   0  0  0  0  0  0  0  0  0  0  0  0
    6.3036   -0.0989    0.0000 H   0  0  0  0  0  0  0  0  0  0  0  0
    6.4390    1.7646    0.0000 H   0  0  0  0  0  0  0  0  0  0  0  0
    5.4892    1.7646    0.0000 H   0  0  0  0  0  0  0  0  0  0  0  0
    4.0611   -0.6900    0.0000 H   0  0  0  0  0  0  0  0  0  0  0  0
    3.7320   -0.1200    0.0000 H   0  0  0  0  0  0  0  0  0  0  0  0
    6.8671   -0.6900    0.0000 H   0  0  0  0  0  0  0  0  0  0  0  0
    5.1350    2.3100    0.0000 H   0  0  0  0  0  0  0  0  0  0  0  0
    8.1962    1.1200    0.0000 H   0  0  0  0  0  0  0  0  0  0  0  0
    6.8671   -2.3100    0.0000 H   0  0  0  0  0  0  0  0  0  0  0  0
    3.7320    3.1200    0.0000 H   0  0  0  0  0  0  0  0  0  0  0  0
    5.4641   -3.1200    0.0000 H   0  0  0  0  0  0  0  0  0  0  0  0
    2.3291    2.3100    0.0000 H   0  0  0  0  0  0  0  0  0  0  0  0
    3.4220   -1.9631    0.0000 H   0  0  0  0  0  0  0  0  0  0  0  0
    3.1951   -2.8100    0.0000 H   0  0  0  0  0  0  0  0  0  0  0  0
    4.0420   -3.0369    0.0000 H   0  0  0  0  0  0  0  0  0  0  0  0
    1.6900    1.0369    0.0000 H   0  0  0  0  0  0  0  0  0  0  0  0
    1.4631    0.1900    0.0000 H   0  0  0  0  0  0  0  0  0  0  0  0
    2.3100   -0.0369    0.0000 H   0  0  0  0  0  0  0  0  0  0  0  0
    9.9282    1.1200    0.0000 H   0  0  0  0  0  0  0  0  0  0  0  0
    8.5252   -1.3100    0.0000 H   0  0  0  0  0  0  0  0  0  0  0  0
   11.3312    0.3100    0.0000 H   0  0  0  0  0  0  0  0  0  0  0  0
    9.9282   -2.1200    0.0000 H   0  0  0  0  0  0  0  0  0  0  0  0
  1  9  2  0  0  0  0
  2  9  1  0  0  0  0
  2 20  1  0  0  0  0
  2 34  1  0  0  0  0
  3 25  2  0  0  0  0
  3 26  1  0  0  0  0
  4  5  1  0  0  0  0
  4  6  1  0  0  0  0
  4  7  1  0  0  0  0
  4  8  1  0  0  0  0
  5  6  1  0  0  0  0
  5  9  1  0  0  0  0
  5 27  1  0  0  0  0
  6 28  1  0  0  0  0
  6 29  1  0  0  0  0
  7 10  1  0  0  0  0
  7 12  2  0  0  0  0
  8 11  1  0  0  0  0
  8 13  2  0  0  0  0
 10 14  2  0  0  0  0
 10 30  1  0  0  0  0
 11 15  2  0  0  0  0
 11 31  1  0  0  0  0
 12 16  1  0  0  0  0
 12 32  1  0  0  0  0
 13 17  1  0  0  0  0
 13 33  1  0  0  0  0
 14 18  1  0  0  0  0
 14 21  1  0  0  0  0
 15 19  1  0  0  0  0
 15 22  1  0  0  0  0
 16 18  2  0  0  0  0
 16 35  1  0  0  0  0
 17 19  2  0  0  0  0
 17 36  1  0  0  0  0
 18 37  1  0  0  0  0
 19 38  1  0  0  0  0
 20 23  2  0  0  0  0
 20 24  1  0  0  0  0
 21 39  1  0  0  0  0
 21 40  1  0  0  0  0
 21 41  1  0  0  0  0
 22 42  1  0  0  0  0
 22 43  1  0  0  0  0
 22 44  1  0  0  0  0
 23 25  1  0  0  0  0
 23 45  1  0  0  0  0
 24 26  2  0  0  0  0
 24 46  1  0  0  0  0
 25 47  1  0  0  0  0
 26 48  1  0  0  0  0
M  END
> <PUBCHEM_COMPOUND_CID>
23996921

> <PUBCHEM_COMPOUND_CANONICALIZED>
1

> <PUBCHEM_CACTVS_COMPLEXITY>
476

> <PUBCHEM_CACTVS_HBOND_ACCEPTOR>
2

> <PUBCHEM_CACTVS_HBOND_DONOR>
1

> <PUBCHEM_CACTVS_ROTATABLE_BOND>
4

> <PUBCHEM_CACTVS_SUBSKEYS>
AAADceB7IAAAAAAAAAAAAAAAGAAAAAAAAAA8YIAAAAAAAAAB0AAAHgAQAAAADwjBmgQ+wJLIEACoAjV3VACCgCAxAiAI2CE4ZJgIIHLA0dGEJAhglADIyAcYiMCPgAACAAAAAAAAAAQAAAAAAAAAAAAAAA==

> <PUBCHEM_IUPAC_OPENEYE_NAME>
2,2-bis(m-tolyl)-N-(4-pyridyl)cyclopropanecarboxamide

> <PUBCHEM_IUPAC_CAS_NAME>
2,2-bis(3-methylphenyl)-N-pyridin-4-yl-1-cyclopropanecarboxamide

> <PUBCHEM_IUPAC_NAME_MARKUP>
2,2-bis(3-methylphenyl)-<I>N</I>-pyridin-4-ylcyclopropane-1-carboxamide

> <PUBCHEM_IUPAC_NAME>
2,2-bis(3-methylphenyl)-N-pyridin-4-ylcyclopropane-1-carboxamide

> <PUBCHEM_IUPAC_SYSTEMATIC_NAME>
2,2-bis(3-methylphenyl)-N-pyridin-4-yl-cyclopropane-1-carboxamide

> <PUBCHEM_IUPAC_TRADITIONAL_NAME>
2,2-bis(m-tolyl)-N-(4-pyridyl)cyclopropanecarboxamide

> <PUBCHEM_IUPAC_INCHI>
InChI=1S/C23H22N2O/c1-16-5-3-7-18(13-16)23(19-8-4-6-17(2)14-19)15-21(23)22(26)25-20-9-11-24-12-10-20/h3-14,21H,15H2,1-2H3,(H,24,25,26)

> <PUBCHEM_IUPAC_INCHIKEY>
MJLKHAZEWYICMC-UHFFFAOYSA-N

> <PUBCHEM_XLOGP3_AA>
4.3

> <PUBCHEM_EXACT_MASS>
342.173213330

> <PUBCHEM_MOLECULAR_FORMULA>
C23H22N2O

> <PUBCHEM_MOLECULAR_WEIGHT>
342.4

> <PUBCHEM_SMILES>
CC1=CC(=CC=C1)C2(CC2C(=O)NC3=CC=NC=C3)C4=CC=CC(=C4)C

> <PUBCHEM_OPENEYE_CAN_SMILES>
CC1=CC(=CC=C1)C2(CC2C(=O)NC3=CC=NC=C3)C4=CC=CC(=C4)C

> <PUBCHEM_OPENEYE_ISO_SMILES>
CC1=CC(=CC=C1)C2(CC2C(=O)NC3=CC=NC=C3)C4=CC=CC(=C4)C

> <PUBCHEM_CACTVS_TPSA>
42

> <PUBCHEM_MONOISOTOPIC_WEIGHT>
342.173213330

> <PUBCHEM_TOTAL_CHARGE>
0

> <PUBCHEM_HEAVY_ATOM_COUNT>
26

> <PUBCHEM_ATOM_DEF_STEREO_COUNT>
0

> <PUBCHEM_ATOM_UDEF_STEREO_COUNT>
1

> <PUBCHEM_BOND_DEF_STEREO_COUNT>
0

> <PUBCHEM_BOND_UDEF_STEREO_COUNT>
0

> <PUBCHEM_ISOTOPIC_ATOM_COUNT>
0

> <PUBCHEM_COMPONENT_COUNT>
1

> <PUBCHEM_CACTVS_TAUTO_COUNT>
-1

> <PUBCHEM_COORDINATE_TYPE>
1
5
255

> <PUBCHEM_BONDANNOTATIONS>
10  14  8
11  15  8
12  16  8
13  17  8
14  18  8
15  19  8
16  18  8
17  19  8
20  23  8
20  24  8
23  25  8
24  26  8
3  25  8
3  26  8
5  9  3
7  10  8
7  12  8
8  11  8
8  13  8

$$$$
