49830537
  -OEChem-03202504012D

 53 57  0     0  0  0  0  0  0999 V2000
    2.0000    5.2260    0.0000 Cl  0  0  0  0  0  0  0  0  0  0  0  0
    5.2088   -2.4720    0.0000 O   0  0  0  0  0  0  0  0  0  0  0  0
    9.0638   -3.2272    0.0000 O   0  0  0  0  0  0  0  0  0  0  0  0
    5.1671    3.6229    0.0000 O   0  0  0  0  0  0  0  0  0  0  0  0
    9.3368   -1.4720    0.0000 N   0  0  0  0  0  0  0  0  0  0  0  0
    6.9409    3.5280    0.0000 N   0  0  0  0  0  0  0  0  0  0  0  0
    5.9718    5.0168    0.0000 N   0  0  0  0  0  0  0  0  0  0  0  0
    3.4768   -5.4720    0.0000 N   0  0  0  0  0  0  0  0  0  0  0  0
    7.8069   -0.9720    0.0000 C   0  0  0  0  0  0  0  0  0  0  0  0
    6.9409   -0.4720    0.0000 C   0  0  0  0  0  0  0  0  0  0  0  0
    7.8069   -1.9720    0.0000 C   0  0  0  0  0  0  0  0  0  0  0  0
    8.7531   -0.6672    0.0000 C   0  0  0  0  0  0  0  0  0  0  0  0
    8.7531   -2.2767    0.0000 C   0  0  0  0  0  0  0  0  0  0  0  0
    6.9409    0.5280    0.0000 C   0  0  0  0  0  0  0  0  0  0  0  0
    6.0749   -0.9720    0.0000 C   0  0  0  0  0  0  0  0  0  0  0  0
    6.9409   -2.4720    0.0000 C   0  0  0  0  0  0  0  0  0  0  0  0
    6.0749   -1.9720    0.0000 C   0  0  0  0  0  0  0  0  0  0  0  0
    7.8069    1.0280    0.0000 C   0  0  0  0  0  0  0  0  0  0  0  0
    6.0749    1.0280    0.0000 C   0  0  0  0  0  0  0  0  0  0  0  0
    5.2088   -3.4720    0.0000 C   0  0  0  0  0  0  0  0  0  0  0  0
    6.9409    2.5280    0.0000 C   0  0  0  0  0  0  0  0  0  0  0  0
    7.8069    2.0280    0.0000 C   0  0  0  0  0  0  0  0  0  0  0  0
    6.0749    2.0280    0.0000 C   0  0  0  0  0  0  0  0  0  0  0  0
    4.3428   -3.9720    0.0000 C   0  0  0  0  0  0  0  0  0  0  0  0
    4.3428   -4.9720    0.0000 C   0  0  0  0  0  0  0  0  0  0  0  0
    6.0749    4.0280    0.0000 C   0  0  0  0  0  0  0  0  0  0  0  0
    4.5000    4.3599    0.0000 C   0  0  0  0  0  0  0  0  0  0  0  0
    5.0000    5.2260    0.0000 C   0  0  0  0  0  0  0  0  0  0  0  0
    3.5000    4.3599    0.0000 C   0  0  0  0  0  0  0  0  0  0  0  0
    4.5000    6.0920    0.0000 C   0  0  0  0  0  0  0  0  0  0  0  0
    3.0000    5.2260    0.0000 C   0  0  0  0  0  0  0  0  0  0  0  0
    3.5000    6.0920    0.0000 C   0  0  0  0  0  0  0  0  0  0  0  0
    9.2905   -0.3580    0.0000 H   0  0  0  0  0  0  0  0  0  0  0  0
    8.5021   -0.1003    0.0000 H   0  0  0  0  0  0  0  0  0  0  0  0
    9.9568   -1.4720    0.0000 H   0  0  0  0  0  0  0  0  0  0  0  0
    5.5379   -0.6620    0.0000 H   0  0  0  0  0  0  0  0  0  0  0  0
    6.9409   -3.0920    0.0000 H   0  0  0  0  0  0  0  0  0  0  0  0
    8.3439    0.7180    0.0000 H   0  0  0  0  0  0  0  0  0  0  0  0
    5.5379    0.7180    0.0000 H   0  0  0  0  0  0  0  0  0  0  0  0
    5.4209   -4.0546    0.0000 H   0  0  0  0  0  0  0  0  0  0  0  0
    5.8194   -3.3643    0.0000 H   0  0  0  0  0  0  0  0  0  0  0  0
    8.3439    2.3380    0.0000 H   0  0  0  0  0  0  0  0  0  0  0  0
    5.5379    2.3380    0.0000 H   0  0  0  0  0  0  0  0  0  0  0  0
    4.1308   -3.3894    0.0000 H   0  0  0  0  0  0  0  0  0  0  0  0
    3.7322   -4.0796    0.0000 H   0  0  0  0  0  0  0  0  0  0  0  0
    7.4778    3.8380    0.0000 H   0  0  0  0  0  0  0  0  0  0  0  0
    4.5549   -5.5546    0.0000 H   0  0  0  0  0  0  0  0  0  0  0  0
    4.9534   -4.8643    0.0000 H   0  0  0  0  0  0  0  0  0  0  0  0
    3.4768   -6.0920    0.0000 H   0  0  0  0  0  0  0  0  0  0  0  0
    2.9399   -5.1620    0.0000 H   0  0  0  0  0  0  0  0  0  0  0  0
    3.1900    3.8230    0.0000 H   0  0  0  0  0  0  0  0  0  0  0  0
    4.8100    6.6289    0.0000 H   0  0  0  0  0  0  0  0  0  0  0  0
    3.1900    6.6289    0.0000 H   0  0  0  0  0  0  0  0  0  0  0  0
  1 31  1  0  0  0  0
  2 17  1  0  0  0  0
  2 20  1  0  0  0  0
  3 13  2  0  0  0  0
  4 26  1  0  0  0  0
  4 27  1  0  0  0  0
  5 12  1  0  0  0  0
  5 13  1  0  0  0  0
  5 35  1  0  0  0  0
  6 21  1  0  0  0  0
  6 26  1  0  0  0  0
  6 46  1  0  0  0  0
  7 26  2  0  0  0  0
  7 28  1  0  0  0  0
  8 25  1  0  0  0  0
  8 49  1  0  0  0  0
  8 50  1  0  0  0  0
  9 10  2  0  0  0  0
  9 11  1  0  0  0  0
  9 12  1  0  0  0  0
 10 14  1  0  0  0  0
 10 15  1  0  0  0  0
 11 13  1  0  0  0  0
 11 16  2  0  0  0  0
 12 33  1  0  0  0  0
 12 34  1  0  0  0  0
 14 18  2  0  0  0  0
 14 19  1  0  0  0  0
 15 17  2  0  0  0  0
 15 36  1  0  0  0  0
 16 17  1  0  0  0  0
 16 37  1  0  0  0  0
 18 22  1  0  0  0  0
 18 38  1  0  0  0  0
 19 23  2  0  0  0  0
 19 39  1  0  0  0  0
 20 24  1  0  0  0  0
 20 40  1  0  0  0  0
 20 41  1  0  0  0  0
 21 22  2  0  0  0  0
 21 23  1  0  0  0  0
 22 42  1  0  0  0  0
 23 43  1  0  0  0  0
 24 25  1  0  0  0  0
 24 44  1  0  0  0  0
 24 45  1  0  0  0  0
 25 47  1  0  0  0  0
 25 48  1  0  0  0  0
 27 28  2  0  0  0  0
 27 29  1  0  0  0  0
 28 30  1  0  0  0  0
 29 31  2  0  0  0  0
 29 51  1  0  0  0  0
 30 32  2  0  0  0  0
 30 52  1  0  0  0  0
 31 32  1  0  0  0  0
 32 53  1  0  0  0  0
M  END
> <PUBCHEM_COMPOUND_CID>
49830537

> <PUBCHEM_COMPOUND_CANONICALIZED>
1

> <PUBCHEM_CACTVS_COMPLEXITY>
647

> <PUBCHEM_CACTVS_HBOND_ACCEPTOR>
6

> <PUBCHEM_CACTVS_HBOND_DONOR>
3

> <PUBCHEM_CACTVS_ROTATABLE_BOND>
7

> <PUBCHEM_CACTVS_SUBSKEYS>
AAADceB7sAAEAAAAAAAAAAAAAAAAAWLAAAAwYMAAAAAAAFgB9AAAHgIQAAAADA7hniYx1rLIFECoA6VydASCiCkvZyAJmKG/btmOJrLFv7uPOSju1hPY7ae+2PKOqABDAQAQEABQAIYCACAgAAAAAAAAAA==

> <PUBCHEM_IUPAC_OPENEYE_NAME>
6-(3-aminopropoxy)-4-[4-[(6-chloro-1,3-benzoxazol-2-yl)amino]phenyl]isoindolin-1-one

> <PUBCHEM_IUPAC_CAS_NAME>
6-(3-aminopropoxy)-4-[4-[(6-chloro-1,3-benzoxazol-2-yl)amino]phenyl]-2,3-dihydroisoindol-1-one

> <PUBCHEM_IUPAC_NAME_MARKUP>
6-(3-aminopropoxy)-4-[4-[(6-chloro-1,3-benzoxazol-2-yl)amino]phenyl]-2,3-dihydroisoindol-1-one

> <PUBCHEM_IUPAC_NAME>
6-(3-aminopropoxy)-4-[4-[(6-chloro-1,3-benzoxazol-2-yl)amino]phenyl]-2,3-dihydroisoindol-1-one

> <PUBCHEM_IUPAC_SYSTEMATIC_NAME>
6-(3-azanylpropoxy)-4-[4-[(6-chloranyl-1,3-benzoxazol-2-yl)amino]phenyl]-2,3-dihydroisoindol-1-one

> <PUBCHEM_IUPAC_TRADITIONAL_NAME>
6-(3-aminopropoxy)-4-[4-[(6-chloro-1,3-benzoxazol-2-yl)amino]phenyl]isoindolin-1-one

> <PUBCHEM_IUPAC_INCHI>
InChI=1S/C24H21ClN4O3/c25-15-4-7-21-22(10-15)32-24(29-21)28-16-5-2-14(3-6-16)18-11-17(31-9-1-8-26)12-19-20(18)13-27-23(19)30/h2-7,10-12H,1,8-9,13,26H2,(H,27,30)(H,28,29)

> <PUBCHEM_IUPAC_INCHIKEY>
KXPWWMPXNUOYOH-UHFFFAOYSA-N

> <PUBCHEM_XLOGP3_AA>
4.1

> <PUBCHEM_EXACT_MASS>
448.1302182

> <PUBCHEM_MOLECULAR_FORMULA>
C24H21ClN4O3

> <PUBCHEM_MOLECULAR_WEIGHT>
448.9

> <PUBCHEM_SMILES>
C1C2=C(C=C(C=C2C(=O)N1)OCCCN)C3=CC=C(C=C3)NC4=NC5=C(O4)C=C(C=C5)Cl

> <PUBCHEM_OPENEYE_CAN_SMILES>
C1C2=C(C=C(C=C2C(=O)N1)OCCCN)C3=CC=C(C=C3)NC4=NC5=C(O4)C=C(C=C5)Cl

> <PUBCHEM_OPENEYE_ISO_SMILES>
C1C2=C(C=C(C=C2C(=O)N1)OCCCN)C3=CC=C(C=C3)NC4=NC5=C(O4)C=C(C=C5)Cl

> <PUBCHEM_CACTVS_TPSA>
102

> <PUBCHEM_MONOISOTOPIC_WEIGHT>
448.1302182

> <PUBCHEM_TOTAL_CHARGE>
0

> <PUBCHEM_HEAVY_ATOM_COUNT>
32

> <PUBCHEM_ATOM_DEF_STEREO_COUNT>
0

> <PUBCHEM_ATOM_UDEF_STEREO_COUNT>
0

> <PUBCHEM_BOND_DEF_STEREO_COUNT>
0

> <PUBCHEM_BOND_UDEF_STEREO_COUNT>
0

> <PUBCHEM_ISOTOPIC_ATOM_COUNT>
0

> <PUBCHEM_COMPONENT_COUNT>
1

> <PUBCHEM_CACTVS_TAUTO_COUNT>
-1

> <PUBCHEM_COORDINATE_TYPE>
1
5
255

> <PUBCHEM_BONDANNOTATIONS>
10  15  8
11  16  8
14  18  8
14  19  8
15  17  8
16  17  8
18  22  8
19  23  8
21  22  8
21  23  8
27  28  8
27  29  8
28  30  8
29  31  8
30  32  8
31  32  8
4  26  8
4  27  8
7  26  8
7  28  8
9  10  8
9  11  8

$$$$
