44317865
  -OEChem-03202505252D

 38 41  0     0  0  0  0  0  0999 V2000
    7.3991   -3.2713    0.0000 Cl  0  0  0  0  0  0  0  0  0  0  0  0
    8.5195    3.2713    0.0000 O   0  0  0  0  0  0  0  0  0  0  0  0
    8.3031   -0.3278    0.0000 O   0  0  0  0  0  0  0  0  0  0  0  0
    7.9235    1.3621    0.0000 N   0  0  0  0  0  0  0  0  0  0  0  0
    4.5274   -0.4107    0.0000 N   0  0  0  0  0  0  0  0  0  0  0  0
    6.6498    0.1884    0.0000 N   0  0  0  0  0  0  0  0  0  0  0  0
    2.0000   -1.5349    0.0000 N   0  0  0  0  0  0  0  0  0  0  0  0
    8.8991    1.5813    0.0000 C   0  0  0  0  0  0  0  0  0  0  0  0
    7.2458    2.0975    0.0000 C   0  0  0  0  0  0  0  0  0  0  0  0
    5.3364   -0.9985    0.0000 C   0  0  0  0  0  0  0  0  0  0  0  0
    5.0274   -1.9495    0.0000 C   0  0  0  0  0  0  0  0  0  0  0  0
    9.1971    2.5359    0.0000 C   0  0  0  0  0  0  0  0  0  0  0  0
    7.5438    3.0521    0.0000 C   0  0  0  0  0  0  0  0  0  0  0  0
    6.3518   -0.7662    0.0000 C   0  0  0  0  0  0  0  0  0  0  0  0
    4.0274   -1.9495    0.0000 C   0  0  0  0  0  0  0  0  0  0  0  0
    7.6255    0.4076    0.0000 C   0  0  0  0  0  0  0  0  0  0  0  0
    3.7183   -0.9985    0.0000 C   0  0  0  0  0  0  0  0  0  0  0  0
    5.7123   -2.7342    0.0000 C   0  0  0  0  0  0  0  0  0  0  0  0
    7.0547   -1.5349    0.0000 C   0  0  0  0  0  0  0  0  0  0  0  0
    6.7328   -2.5256    0.0000 C   0  0  0  0  0  0  0  0  0  0  0  0
    3.3424   -2.7342    0.0000 C   0  0  0  0  0  0  0  0  0  0  0  0
    2.7029   -0.7662    0.0000 C   0  0  0  0  0  0  0  0  0  0  0  0
    2.3219   -2.5256    0.0000 C   0  0  0  0  0  0  0  0  0  0  0  0
    8.9279    0.9620    0.0000 H   0  0  0  0  0  0  0  0  0  0  0  0
    9.5141    1.5022    0.0000 H   0  0  0  0  0  0  0  0  0  0  0  0
    6.6950    2.3822    0.0000 H   0  0  0  0  0  0  0  0  0  0  0  0
    6.8698    1.6045    0.0000 H   0  0  0  0  0  0  0  0  0  0  0  0
    9.7479    2.2512    0.0000 H   0  0  0  0  0  0  0  0  0  0  0  0
    9.5732    3.0288    0.0000 H   0  0  0  0  0  0  0  0  0  0  0  0
    7.5150    3.6714    0.0000 H   0  0  0  0  0  0  0  0  0  0  0  0
    6.9289    3.1312    0.0000 H   0  0  0  0  0  0  0  0  0  0  0  0
    4.5274    0.2093    0.0000 H   0  0  0  0  0  0  0  0  0  0  0  0
    6.2296    0.6443    0.0000 H   0  0  0  0  0  0  0  0  0  0  0  0
    5.5139   -3.3216    0.0000 H   0  0  0  0  0  0  0  0  0  0  0  0
    7.6607   -1.4036    0.0000 H   0  0  0  0  0  0  0  0  0  0  0  0
    3.5408   -3.3216    0.0000 H   0  0  0  0  0  0  0  0  0  0  0  0
    2.5182   -0.1744    0.0000 H   0  0  0  0  0  0  0  0  0  0  0  0
    1.9088   -2.9879    0.0000 H   0  0  0  0  0  0  0  0  0  0  0  0
  1 20  1  0  0  0  0
  2 12  1  0  0  0  0
  2 13  1  0  0  0  0
  3 16  2  0  0  0  0
  4  8  1  0  0  0  0
  4  9  1  0  0  0  0
  4 16  1  0  0  0  0
  5 10  1  0  0  0  0
  5 17  1  0  0  0  0
  5 32  1  0  0  0  0
  6 14  1  0  0  0  0
  6 16  1  0  0  0  0
  6 33  1  0  0  0  0
  7 22  2  0  0  0  0
  7 23  1  0  0  0  0
  8 12  1  0  0  0  0
  8 24  1  0  0  0  0
  8 25  1  0  0  0  0
  9 13  1  0  0  0  0
  9 26  1  0  0  0  0
  9 27  1  0  0  0  0
 10 11  2  0  0  0  0
 10 14  1  0  0  0  0
 11 15  1  0  0  0  0
 11 18  1  0  0  0  0
 12 28  1  0  0  0  0
 12 29  1  0  0  0  0
 13 30  1  0  0  0  0
 13 31  1  0  0  0  0
 14 19  2  0  0  0  0
 15 17  2  0  0  0  0
 15 21  1  0  0  0  0
 17 22  1  0  0  0  0
 18 20  2  0  0  0  0
 18 34  1  0  0  0  0
 19 20  1  0  0  0  0
 19 35  1  0  0  0  0
 21 23  2  0  0  0  0
 21 36  1  0  0  0  0
 22 37  1  0  0  0  0
 23 38  1  0  0  0  0
M  END
> <PUBCHEM_COMPOUND_CID>
44317865

> <PUBCHEM_COMPOUND_CANONICALIZED>
1

> <PUBCHEM_CACTVS_COMPLEXITY>
446

> <PUBCHEM_CACTVS_HBOND_ACCEPTOR>
3

> <PUBCHEM_CACTVS_HBOND_DONOR>
2

> <PUBCHEM_CACTVS_ROTATABLE_BOND>
1

> <PUBCHEM_CACTVS_SUBSKEYS>
AAADccB7sAAEAAAAAAAAAAAAAAAAAWAAAAA8WIAAAAAAAFgB/gAAHgIQAAAADArhniY9wPPJlACoAzRnVACCgCQxFyAI2SA4dpiKYOLBk5GXIAholgLYyCcQgMAOgABAYAICACAAAIDABAQAQAAAAAAAAA==

> <PUBCHEM_IUPAC_OPENEYE_NAME>
N-(6-chloro-9H-pyrido[3,4-b]indol-8-yl)morpholine-4-carboxamide

> <PUBCHEM_IUPAC_CAS_NAME>
N-(6-chloro-9H-pyrido[3,4-b]indol-8-yl)-4-morpholinecarboxamide

> <PUBCHEM_IUPAC_NAME_MARKUP>
<I>N</I>-(6-chloro-9<I>H</I>-pyrido[3,4-b]indol-8-yl)morpholine-4-carboxamide

> <PUBCHEM_IUPAC_NAME>
N-(6-chloro-9H-pyrido[3,4-b]indol-8-yl)morpholine-4-carboxamide

> <PUBCHEM_IUPAC_SYSTEMATIC_NAME>
N-(6-chloranyl-9H-pyrido[3,4-b]indol-8-yl)morpholine-4-carboxamide

> <PUBCHEM_IUPAC_TRADITIONAL_NAME>
N-(6-chloro-9H-beta-carbolin-8-yl)morpholine-4-carboxamide

> <PUBCHEM_IUPAC_INCHI>
InChI=1S/C16H15ClN4O2/c17-10-7-12-11-1-2-18-9-14(11)19-15(12)13(8-10)20-16(22)21-3-5-23-6-4-21/h1-2,7-9,19H,3-6H2,(H,20,22)

> <PUBCHEM_IUPAC_INCHIKEY>
KNVZFYPJWMZUTO-UHFFFAOYSA-N

> <PUBCHEM_XLOGP3_AA>
1.8

> <PUBCHEM_EXACT_MASS>
330.0883534

> <PUBCHEM_MOLECULAR_FORMULA>
C16H15ClN4O2

> <PUBCHEM_MOLECULAR_WEIGHT>
330.77

> <PUBCHEM_SMILES>
C1COCCN1C(=O)NC2=CC(=CC3=C2NC4=C3C=CN=C4)Cl

> <PUBCHEM_OPENEYE_CAN_SMILES>
C1COCCN1C(=O)NC2=CC(=CC3=C2NC4=C3C=CN=C4)Cl

> <PUBCHEM_OPENEYE_ISO_SMILES>
C1COCCN1C(=O)NC2=CC(=CC3=C2NC4=C3C=CN=C4)Cl

> <PUBCHEM_CACTVS_TPSA>
70.3

> <PUBCHEM_MONOISOTOPIC_WEIGHT>
330.0883534

> <PUBCHEM_TOTAL_CHARGE>
0

> <PUBCHEM_HEAVY_ATOM_COUNT>
23

> <PUBCHEM_ATOM_DEF_STEREO_COUNT>
0

> <PUBCHEM_ATOM_UDEF_STEREO_COUNT>
0

> <PUBCHEM_BOND_DEF_STEREO_COUNT>
0

> <PUBCHEM_BOND_UDEF_STEREO_COUNT>
0

> <PUBCHEM_ISOTOPIC_ATOM_COUNT>
0

> <PUBCHEM_COMPONENT_COUNT>
1

> <PUBCHEM_CACTVS_TAUTO_COUNT>
-1

> <PUBCHEM_COORDINATE_TYPE>
1
5
255

> <PUBCHEM_BONDANNOTATIONS>
10  11  8
10  14  8
11  15  8
11  18  8
14  19  8
15  17  8
15  21  8
17  22  8
18  20  8
19  20  8
21  23  8
5  10  8
5  17  8
7  22  8
7  23  8

$$$$
