10286133
  -OEChem-03202500472D

 29 30  0     0  0  0  0  0  0999 V2000
    3.7891    1.9571    0.0000 S   0  0  0  0  0  0  0  0  0  0  0  0
    2.8660    0.3693    0.0000 O   0  0  0  0  0  0  0  0  0  0  0  0
    3.9170    4.6307    0.0000 O   0  5  0  0  0  0  0  0  0  0  0  0
    2.5158    3.6126    0.0000 O   0  0  0  0  0  0  0  0  0  0  0  0
    3.7320   -1.1307    0.0000 N   0  0  0  0  0  0  0  0  0  0  0  0
    4.5981    0.3693    0.0000 N   0  0  0  0  0  0  0  0  0  0  0  0
    5.4071    1.9571    0.0000 N   0  0  0  0  0  0  0  0  0  0  0  0
    3.5103    3.7172    0.0000 N   0  3  0  0  0  0  0  0  0  0  0  0
    2.8660   -1.6307    0.0000 C   0  0  0  0  0  0  0  0  0  0  0  0
    2.8660   -2.6307    0.0000 C   0  0  0  0  0  0  0  0  0  0  0  0
    3.7320   -3.1307    0.0000 C   0  0  0  0  0  0  0  0  0  0  0  0
    2.0000   -3.1307    0.0000 C   0  0  0  0  0  0  0  0  0  0  0  0
    3.7320   -0.1307    0.0000 C   0  0  0  0  0  0  0  0  0  0  0  0
    3.7320   -4.1307    0.0000 C   0  0  0  0  0  0  0  0  0  0  0  0
    2.0000   -4.1307    0.0000 C   0  0  0  0  0  0  0  0  0  0  0  0
    4.5981    1.3693    0.0000 C   0  0  0  0  0  0  0  0  0  0  0  0
    2.8660   -4.6307    0.0000 C   0  0  0  0  0  0  0  0  0  0  0  0
    4.0981    2.9081    0.0000 C   0  0  0  0  0  0  0  0  0  0  0  0
    5.0981    2.9081    0.0000 C   0  0  0  0  0  0  0  0  0  0  0  0
    2.6540   -1.0481    0.0000 H   0  0  0  0  0  0  0  0  0  0  0  0
    2.2554   -1.7384    0.0000 H   0  0  0  0  0  0  0  0  0  0  0  0
    4.2690   -1.4407    0.0000 H   0  0  0  0  0  0  0  0  0  0  0  0
    4.2690   -2.8207    0.0000 H   0  0  0  0  0  0  0  0  0  0  0  0
    1.4631   -2.8207    0.0000 H   0  0  0  0  0  0  0  0  0  0  0  0
    4.2690   -4.4407    0.0000 H   0  0  0  0  0  0  0  0  0  0  0  0
    1.4631   -4.4407    0.0000 H   0  0  0  0  0  0  0  0  0  0  0  0
    5.1350    0.0593    0.0000 H   0  0  0  0  0  0  0  0  0  0  0  0
    2.8660   -5.2507    0.0000 H   0  0  0  0  0  0  0  0  0  0  0  0
    5.4625    3.4097    0.0000 H   0  0  0  0  0  0  0  0  0  0  0  0
  1 16  1  0  0  0  0
  1 18  1  0  0  0  0
  2 13  2  0  0  0  0
  3  8  1  0  0  0  0
  4  8  2  0  0  0  0
  5  9  1  0  0  0  0
  5 13  1  0  0  0  0
  5 22  1  0  0  0  0
  6 13  1  0  0  0  0
  6 16  1  0  0  0  0
  6 27  1  0  0  0  0
  7 16  2  0  0  0  0
  7 19  1  0  0  0  0
  8 18  1  0  0  0  0
  9 10  1  0  0  0  0
  9 20  1  0  0  0  0
  9 21  1  0  0  0  0
 10 11  2  0  0  0  0
 10 12  1  0  0  0  0
 11 14  1  0  0  0  0
 11 23  1  0  0  0  0
 12 15  2  0  0  0  0
 12 24  1  0  0  0  0
 14 17  2  0  0  0  0
 14 25  1  0  0  0  0
 15 17  1  0  0  0  0
 15 26  1  0  0  0  0
 17 28  1  0  0  0  0
 18 19  2  0  0  0  0
 19 29  1  0  0  0  0
M  CHG  2   3  -1   8   1
M  END
> <PUBCHEM_COMPOUND_CID>
10286133

> <PUBCHEM_COMPOUND_CANONICALIZED>
1

> <PUBCHEM_CACTVS_COMPLEXITY>
330

> <PUBCHEM_CACTVS_HBOND_ACCEPTOR>
5

> <PUBCHEM_CACTVS_HBOND_DONOR>
2

> <PUBCHEM_CACTVS_ROTATABLE_BOND>
3

> <PUBCHEM_CACTVS_SUBSKEYS>
AAADccBzsABAAAAAAAAAAAAAAAAAAWAAAAAwAAAAAAAAAAABwAAAHgQUAAAADADBWgQ9kZLYUAitAjBndwCC8KlxGjlpyIwINIqIYCKAkRGUIAhoh4IIiCcQgAAOAAAAAAAAAAAAAAAAAAAAAAAAAAAAAA==

> <PUBCHEM_IUPAC_OPENEYE_NAME>
1-benzyl-3-(5-nitrothiazol-2-yl)urea

> <PUBCHEM_IUPAC_CAS_NAME>
1-(5-nitro-2-thiazolyl)-3-(phenylmethyl)urea

> <PUBCHEM_IUPAC_NAME_MARKUP>
1-benzyl-3-(5-nitro-1,3-thiazol-2-yl)urea

> <PUBCHEM_IUPAC_NAME>
1-benzyl-3-(5-nitro-1,3-thiazol-2-yl)urea

> <PUBCHEM_IUPAC_SYSTEMATIC_NAME>
1-(5-nitro-1,3-thiazol-2-yl)-3-(phenylmethyl)urea

> <PUBCHEM_IUPAC_TRADITIONAL_NAME>
1-benzyl-3-(5-nitrothiazol-2-yl)urea

> <PUBCHEM_IUPAC_INCHI>
InChI=1S/C11H10N4O3S/c16-10(12-6-8-4-2-1-3-5-8)14-11-13-7-9(19-11)15(17)18/h1-5,7H,6H2,(H2,12,13,14,16)

> <PUBCHEM_IUPAC_INCHIKEY>
CKDGJQLBXUOVSI-UHFFFAOYSA-N

> <PUBCHEM_XLOGP3>
2.6

> <PUBCHEM_EXACT_MASS>
278.04736137

> <PUBCHEM_MOLECULAR_FORMULA>
C11H10N4O3S

> <PUBCHEM_MOLECULAR_WEIGHT>
278.29

> <PUBCHEM_SMILES>
C1=CC=C(C=C1)CNC(=O)NC2=NC=C(S2)[N+](=O)[O-]

> <PUBCHEM_OPENEYE_CAN_SMILES>
C1=CC=C(C=C1)CNC(=O)NC2=NC=C(S2)[N+](=O)[O-]

> <PUBCHEM_OPENEYE_ISO_SMILES>
C1=CC=C(C=C1)CNC(=O)NC2=NC=C(S2)[N+](=O)[O-]

> <PUBCHEM_CACTVS_TPSA>
128

> <PUBCHEM_MONOISOTOPIC_WEIGHT>
278.04736137

> <PUBCHEM_TOTAL_CHARGE>
0

> <PUBCHEM_HEAVY_ATOM_COUNT>
19

> <PUBCHEM_ATOM_DEF_STEREO_COUNT>
0

> <PUBCHEM_ATOM_UDEF_STEREO_COUNT>
0

> <PUBCHEM_BOND_DEF_STEREO_COUNT>
0

> <PUBCHEM_BOND_UDEF_STEREO_COUNT>
0

> <PUBCHEM_ISOTOPIC_ATOM_COUNT>
0

> <PUBCHEM_COMPONENT_COUNT>
1

> <PUBCHEM_CACTVS_TAUTO_COUNT>
-1

> <PUBCHEM_COORDINATE_TYPE>
1
5
255

> <PUBCHEM_BONDANNOTATIONS>
1  16  8
1  18  8
10  11  8
10  12  8
11  14  8
12  15  8
14  17  8
15  17  8
18  19  8
7  16  8
7  19  8

$$$$
