11248978
  -OEChem-03202500322D

 61 67  0     0  0  0  0  0  0999 V2000
    4.4616    5.5974    0.0000 O   0  0  0  0  0  0  0  0  0  0  0  0
    7.1488    3.1934    0.0000 O   0  0  0  0  0  0  0  0  0  0  0  0
    2.0000   -1.5151    0.0000 O   0  0  0  0  0  0  0  0  0  0  0  0
    3.6283   -4.6360    0.0000 O   0  0  0  0  0  0  0  0  0  0  0  0
    4.3167    0.4610    0.0000 N   0  0  0  0  0  0  0  0  0  0  0  0
    5.7177    2.2177    0.0000 N   0  0  0  0  0  0  0  0  0  0  0  0
    5.5883    3.9449    0.0000 N   0  0  0  0  0  0  0  0  0  0  0  0
    2.5670   -3.2045    0.0000 N   0  0  0  0  0  0  0  0  0  0  0  0
    5.6108   -3.9646    0.0000 N   0  0  0  0  0  0  0  0  0  0  0  0
    6.7384   -2.8130    0.0000 N   0  0  0  0  0  0  0  0  0  0  0  0
    5.2177    0.0271    0.0000 C   0  0  0  0  0  0  0  0  0  0  0  0
    4.0942    1.4359    0.0000 C   0  0  0  0  0  0  0  0  0  0  0  0
    4.7177    2.2177    0.0000 C   0  0  0  0  0  0  0  0  0  0  0  0
    6.1187    0.4610    0.0000 C   0  0  0  0  0  0  0  0  0  0  0  0
    6.3412    1.4359    0.0000 C   0  0  0  0  0  0  0  0  0  0  0  0
    5.1239   -1.0103    0.0000 C   0  0  0  0  0  0  0  0  0  0  0  0
    4.1454   -1.1541    0.0000 C   0  0  0  0  0  0  0  0  0  0  0  0
    3.6697   -0.2870    0.0000 C   0  0  0  0  0  0  0  0  0  0  0  0
    6.1516    3.1187    0.0000 C   0  0  0  0  0  0  0  0  0  0  0  0
    3.7000   -2.0494    0.0000 C   0  0  0  0  0  0  0  0  0  0  0  0
    6.9883   -0.1125    0.0000 C   0  0  0  0  0  0  0  0  0  0  0  0
    5.9800   -1.6037    0.0000 C   0  0  0  0  0  0  0  0  0  0  0  0
    4.5911    3.8702    0.0000 C   0  0  0  0  0  0  0  0  0  0  0  0
    6.0222    4.8459    0.0000 C   0  0  0  0  0  0  0  0  0  0  0  0
    6.9184   -1.1518    0.0000 C   0  0  0  0  0  0  0  0  0  0  0  0
    4.1626   -2.9360    0.0000 C   0  0  0  0  0  0  0  0  0  0  0  0
    4.0278    4.6964    0.0000 C   0  0  0  0  0  0  0  0  0  0  0  0
    5.4588    5.6721    0.0000 C   0  0  0  0  0  0  0  0  0  0  0  0
    2.7139   -2.2154    0.0000 C   0  0  0  0  0  0  0  0  0  0  0  0
    5.1518   -3.0829    0.0000 C   0  0  0  0  0  0  0  0  0  0  0  0
    3.4624   -3.6499    0.0000 C   0  0  0  0  0  0  0  0  0  0  0  0
    5.8472   -2.3726    0.0000 C   0  0  0  0  0  0  0  0  0  0  0  0
    6.5967   -3.7969    0.0000 C   0  0  0  0  0  0  0  0  0  0  0  0
    5.2631   -4.9022    0.0000 C   0  0  0  0  0  0  0  0  0  0  0  0
    7.2348   -4.5669    0.0000 C   0  0  0  0  0  0  0  0  0  0  0  0
    5.9012   -5.6721    0.0000 C   0  0  0  0  0  0  0  0  0  0  0  0
    6.8871   -5.5045    0.0000 C   0  0  0  0  0  0  0  0  0  0  0  0
    3.7077    1.9206    0.0000 H   0  0  0  0  0  0  0  0  0  0  0  0
    3.5356    1.1669    0.0000 H   0  0  0  0  0  0  0  0  0  0  0  0
    4.8557    2.8222    0.0000 H   0  0  0  0  0  0  0  0  0  0  0  0
    4.1591    2.4867    0.0000 H   0  0  0  0  0  0  0  0  0  0  0  0
    6.8998    1.1669    0.0000 H   0  0  0  0  0  0  0  0  0  0  0  0
    6.7278    1.9206    0.0000 H   0  0  0  0  0  0  0  0  0  0  0  0
    3.0532   -0.2216    0.0000 H   0  0  0  0  0  0  0  0  0  0  0  0
    7.5437    0.1630    0.0000 H   0  0  0  0  0  0  0  0  0  0  0  0
    5.9312   -2.2218    0.0000 H   0  0  0  0  0  0  0  0  0  0  0  0
    4.0259    3.6152    0.0000 H   0  0  0  0  0  0  0  0  0  0  0  0
    4.7441    3.2694    0.0000 H   0  0  0  0  0  0  0  0  0  0  0  0
    6.5256    4.4840    0.0000 H   0  0  0  0  0  0  0  0  0  0  0  0
    6.4660    5.2788    0.0000 H   0  0  0  0  0  0  0  0  0  0  0  0
    7.4320   -1.4990    0.0000 H   0  0  0  0  0  0  0  0  0  0  0  0
    3.5244    5.0584    0.0000 H   0  0  0  0  0  0  0  0  0  0  0  0
    3.5839    4.2635    0.0000 H   0  0  0  0  0  0  0  0  0  0  0  0
    6.0240    5.9271    0.0000 H   0  0  0  0  0  0  0  0  0  0  0  0
    5.3059    6.2730    0.0000 H   0  0  0  0  0  0  0  0  0  0  0  0
    2.0173   -3.4913    0.0000 H   0  0  0  0  0  0  0  0  0  0  0  0
    5.7433   -1.7614    0.0000 H   0  0  0  0  0  0  0  0  0  0  0  0
    4.6519   -5.0062    0.0000 H   0  0  0  0  0  0  0  0  0  0  0  0
    7.8460   -4.4629    0.0000 H   0  0  0  0  0  0  0  0  0  0  0  0
    5.6856   -6.2534    0.0000 H   0  0  0  0  0  0  0  0  0  0  0  0
    7.2827   -5.9818    0.0000 H   0  0  0  0  0  0  0  0  0  0  0  0
  1 27  1  0  0  0  0
  1 28  1  0  0  0  0
  2 19  2  0  0  0  0
  3 29  2  0  0  0  0
  4 31  2  0  0  0  0
  5 11  1  0  0  0  0
  5 12  1  0  0  0  0
  5 18  1  0  0  0  0
  6 13  1  0  0  0  0
  6 15  1  0  0  0  0
  6 19  1  0  0  0  0
  7 19  1  0  0  0  0
  7 23  1  0  0  0  0
  7 24  1  0  0  0  0
  8 29  1  0  0  0  0
  8 31  1  0  0  0  0
  8 56  1  0  0  0  0
  9 30  1  0  0  0  0
  9 33  1  0  0  0  0
  9 34  1  0  0  0  0
 10 32  1  0  0  0  0
 10 33  2  0  0  0  0
 11 14  2  0  0  0  0
 11 16  1  0  0  0  0
 12 13  1  0  0  0  0
 12 38  1  0  0  0  0
 12 39  1  0  0  0  0
 13 40  1  0  0  0  0
 13 41  1  0  0  0  0
 14 15  1  0  0  0  0
 14 21  1  0  0  0  0
 15 42  1  0  0  0  0
 15 43  1  0  0  0  0
 16 17  1  0  0  0  0
 16 22  2  0  0  0  0
 17 18  2  0  0  0  0
 17 20  1  0  0  0  0
 18 44  1  0  0  0  0
 20 26  2  0  0  0  0
 20 29  1  0  0  0  0
 21 25  2  0  0  0  0
 21 45  1  0  0  0  0
 22 25  1  0  0  0  0
 22 46  1  0  0  0  0
 23 27  1  0  0  0  0
 23 47  1  0  0  0  0
 23 48  1  0  0  0  0
 24 28  1  0  0  0  0
 24 49  1  0  0  0  0
 24 50  1  0  0  0  0
 25 51  1  0  0  0  0
 26 30  1  0  0  0  0
 26 31  1  0  0  0  0
 27 52  1  0  0  0  0
 27 53  1  0  0  0  0
 28 54  1  0  0  0  0
 28 55  1  0  0  0  0
 30 32  2  0  0  0  0
 32 57  1  0  0  0  0
 33 35  1  0  0  0  0
 34 36  2  0  0  0  0
 34 58  1  0  0  0  0
 35 37  2  0  0  0  0
 35 59  1  0  0  0  0
 36 37  1  0  0  0  0
 36 60  1  0  0  0  0
 37 61  1  0  0  0  0
M  END
> <PUBCHEM_COMPOUND_CID>
11248978

> <PUBCHEM_COMPOUND_CANONICALIZED>
1

> <PUBCHEM_CACTVS_COMPLEXITY>
995

> <PUBCHEM_CACTVS_HBOND_ACCEPTOR>
5

> <PUBCHEM_CACTVS_HBOND_DONOR>
1

> <PUBCHEM_CACTVS_ROTATABLE_BOND>
2

> <PUBCHEM_CACTVS_SUBSKEYS>
AAADceB7uAAAAAAAAAAAAAAAAAAAAWLEAAA8WIAABYAAAFix/gAAHgAQAAAADAjhnwY98P/MHACoAzd3dACCgC0xEqAJ2CE4dNiKaPrA3ZGXIAhohiLYySccicCegAACAAACAAAAAAQAAAQAAAAAAAAAAA==

> <PUBCHEM_IUPAC_OPENEYE_NAME>
3-imidazo[1,2-a]pyridin-3-yl-4-[10-(morpholine-4-carbonyl)-1,10-diazatricyclo[6.4.1.04,13]trideca-2,4,6,8(13)-tetraen-3-yl]pyrrole-2,5-dione

> <PUBCHEM_IUPAC_CAS_NAME>
3-(3-imidazo[1,2-a]pyridinyl)-4-[10-[4-morpholinyl(oxo)methyl]-1,10-diazatricyclo[6.4.1.04,13]trideca-2,4,6,8(13)-tetraen-3-yl]pyrrole-2,5-dione

> <PUBCHEM_IUPAC_NAME_MARKUP>
3-imidazo[1,2-a]pyridin-3-yl-4-[10-(morpholine-4-carbonyl)-1,10-diazatricyclo[6.4.1.0<SUP>4,13</SUP>]trideca-2,4,6,8(13)-tetraen-3-yl]pyrrole-2,5-dione

> <PUBCHEM_IUPAC_NAME>
3-imidazo[1,2-a]pyridin-3-yl-4-[10-(morpholine-4-carbonyl)-1,10-diazatricyclo[6.4.1.04,13]trideca-2,4,6,8(13)-tetraen-3-yl]pyrrole-2,5-dione

> <PUBCHEM_IUPAC_SYSTEMATIC_NAME>
3-imidazo[1,2-a]pyridin-3-yl-4-(10-morpholin-4-ylcarbonyl-1,10-diazatricyclo[6.4.1.04,13]trideca-2,4,6,8(13)-tetraen-3-yl)pyrrole-2,5-dione

> <PUBCHEM_IUPAC_TRADITIONAL_NAME>
3-imidazo[1,2-a]pyridin-3-yl-4-[10-(morpholine-4-carbonyl)-1,10-diazatricyclo[6.4.1.04,13]trideca-2,4,6,8(13)-tetraen-3-yl]-3-pyrroline-2,5-quinone

> <PUBCHEM_IUPAC_INCHI>
InChI=1S/C27H24N6O4/c34-25-22(23(26(35)29-25)20-14-28-21-6-1-2-7-33(20)21)19-16-31-8-9-32(27(36)30-10-12-37-13-11-30)15-17-4-3-5-18(19)24(17)31/h1-7,14,16H,8-13,15H2,(H,29,34,35)

> <PUBCHEM_IUPAC_INCHIKEY>
INJUVNWOFHYUIN-UHFFFAOYSA-N

> <PUBCHEM_XLOGP3_AA>
1.2

> <PUBCHEM_EXACT_MASS>
496.18590327

> <PUBCHEM_MOLECULAR_FORMULA>
C27H24N6O4

> <PUBCHEM_MOLECULAR_WEIGHT>
496.5

> <PUBCHEM_SMILES>
C1CN2C=C(C3=CC=CC(=C32)CN1C(=O)N4CCOCC4)C5=C(C(=O)NC5=O)C6=CN=C7N6C=CC=C7

> <PUBCHEM_OPENEYE_CAN_SMILES>
C1CN2C=C(C3=CC=CC(=C32)CN1C(=O)N4CCOCC4)C5=C(C(=O)NC5=O)C6=CN=C7N6C=CC=C7

> <PUBCHEM_OPENEYE_ISO_SMILES>
C1CN2C=C(C3=CC=CC(=C32)CN1C(=O)N4CCOCC4)C5=C(C(=O)NC5=O)C6=CN=C7N6C=CC=C7

> <PUBCHEM_CACTVS_TPSA>
101

> <PUBCHEM_MONOISOTOPIC_WEIGHT>
496.18590327

> <PUBCHEM_TOTAL_CHARGE>
0

> <PUBCHEM_HEAVY_ATOM_COUNT>
37

> <PUBCHEM_ATOM_DEF_STEREO_COUNT>
0

> <PUBCHEM_ATOM_UDEF_STEREO_COUNT>
0

> <PUBCHEM_BOND_DEF_STEREO_COUNT>
0

> <PUBCHEM_BOND_UDEF_STEREO_COUNT>
0

> <PUBCHEM_ISOTOPIC_ATOM_COUNT>
0

> <PUBCHEM_COMPONENT_COUNT>
1

> <PUBCHEM_CACTVS_TAUTO_COUNT>
-1

> <PUBCHEM_COORDINATE_TYPE>
1
5
255

> <PUBCHEM_BONDANNOTATIONS>
10  32  8
10  33  8
11  14  8
11  16  8
14  21  8
16  17  8
16  22  8
17  18  8
21  25  8
22  25  8
30  32  8
33  35  8
34  36  8
35  37  8
36  37  8
5  11  8
5  18  8
9  30  8
9  33  8
9  34  8

$$$$
