49830923
  -OEChem-03202502482D

 26 28  0     0  0  0  0  0  0999 V2000
    6.3301   -0.2500    0.0000 N   0  0  0  0  0  0  0  0  0  0  0  0
    7.2764   -1.5547    0.0000 N   0  0  0  0  0  0  0  0  0  0  0  0
    7.8600   -0.7500    0.0000 N   0  0  0  0  0  0  0  0  0  0  0  0
    7.5870    1.0052    0.0000 N   0  0  0  0  0  0  0  0  0  0  0  0
    4.5981   -0.2500    0.0000 C   0  0  0  0  0  0  0  0  0  0  0  0
    5.4641    0.2500    0.0000 C   0  0  0  0  0  0  0  0  0  0  0  0
    6.3301   -1.2500    0.0000 C   0  0  0  0  0  0  0  0  0  0  0  0
    3.7320    0.2500    0.0000 C   0  0  0  0  0  0  0  0  0  0  0  0
    4.5981   -1.2500    0.0000 C   0  0  0  0  0  0  0  0  0  0  0  0
    5.4641   -1.7500    0.0000 C   0  0  0  0  0  0  0  0  0  0  0  0
    7.2764    0.0547    0.0000 C   0  0  0  0  0  0  0  0  0  0  0  0
    3.7320    1.2500    0.0000 C   0  0  0  0  0  0  0  0  0  0  0  0
    2.8660   -0.2500    0.0000 C   0  0  0  0  0  0  0  0  0  0  0  0
    2.8660    1.7500    0.0000 C   0  0  0  0  0  0  0  0  0  0  0  0
    2.0000    0.2500    0.0000 C   0  0  0  0  0  0  0  0  0  0  0  0
    2.0000    1.2500    0.0000 C   0  0  0  0  0  0  0  0  0  0  0  0
    5.4641    0.8700    0.0000 H   0  0  0  0  0  0  0  0  0  0  0  0
    4.0611   -1.5600    0.0000 H   0  0  0  0  0  0  0  0  0  0  0  0
    5.4641   -2.3700    0.0000 H   0  0  0  0  0  0  0  0  0  0  0  0
    4.2690    1.5600    0.0000 H   0  0  0  0  0  0  0  0  0  0  0  0
    2.8660   -0.8700    0.0000 H   0  0  0  0  0  0  0  0  0  0  0  0
    2.8660    2.3700    0.0000 H   0  0  0  0  0  0  0  0  0  0  0  0
    1.4631   -0.0600    0.0000 H   0  0  0  0  0  0  0  0  0  0  0  0
    1.4631    1.5600    0.0000 H   0  0  0  0  0  0  0  0  0  0  0  0
    8.1937    1.1331    0.0000 H   0  0  0  0  0  0  0  0  0  0  0  0
    7.1730    1.4667    0.0000 H   0  0  0  0  0  0  0  0  0  0  0  0
  1  6  1  0  0  0  0
  1  7  1  0  0  0  0
  1 11  1  0  0  0  0
  2  3  1  0  0  0  0
  2  7  2  0  0  0  0
  3 11  2  0  0  0  0
  4 11  1  0  0  0  0
  4 25  1  0  0  0  0
  4 26  1  0  0  0  0
  5  6  2  0  0  0  0
  5  8  1  0  0  0  0
  5  9  1  0  0  0  0
  6 17  1  0  0  0  0
  7 10  1  0  0  0  0
  8 12  2  0  0  0  0
  8 13  1  0  0  0  0
  9 10  2  0  0  0  0
  9 18  1  0  0  0  0
 10 19  1  0  0  0  0
 12 14  1  0  0  0  0
 12 20  1  0  0  0  0
 13 15  2  0  0  0  0
 13 21  1  0  0  0  0
 14 16  2  0  0  0  0
 14 22  1  0  0  0  0
 15 16  1  0  0  0  0
 15 23  1  0  0  0  0
 16 24  1  0  0  0  0
M  END
> <PUBCHEM_COMPOUND_CID>
49830923

> <PUBCHEM_COMPOUND_CANONICALIZED>
1

> <PUBCHEM_CACTVS_COMPLEXITY>
239

> <PUBCHEM_CACTVS_HBOND_ACCEPTOR>
3

> <PUBCHEM_CACTVS_HBOND_DONOR>
1

> <PUBCHEM_CACTVS_ROTATABLE_BOND>
1

> <PUBCHEM_CACTVS_SUBSKEYS>
AAADccBzgAAAAAAAAAAAAAAAAAAAAWAAAAA8QAAAAAAAAFgB8AAAHAAYAAAADADBGwQ9sJ9MGACiAjJnZACShCsxAqAd2CA4ZJiIKOLAmZGEoAhwiALIyCcQgMAOgAAAAAAAAAAAAAAAAAAAAAAAAAAAAA==

> <PUBCHEM_IUPAC_OPENEYE_NAME>
6-phenyl-[1,2,4]triazolo[4,3-a]pyridin-3-amine

> <PUBCHEM_IUPAC_CAS_NAME>
6-phenyl-[1,2,4]triazolo[4,3-a]pyridin-3-amine

> <PUBCHEM_IUPAC_NAME_MARKUP>
6-phenyl-[1,2,4]triazolo[4,3-a]pyridin-3-amine

> <PUBCHEM_IUPAC_NAME>
6-phenyl-[1,2,4]triazolo[4,3-a]pyridin-3-amine

> <PUBCHEM_IUPAC_SYSTEMATIC_NAME>
6-phenyl-[1,2,4]triazolo[4,3-a]pyridin-3-amine

> <PUBCHEM_IUPAC_TRADITIONAL_NAME>
(6-phenyl-[1,2,4]triazolo[4,3-a]pyridin-3-yl)amine

> <PUBCHEM_IUPAC_INCHI>
InChI=1S/C12H10N4/c13-12-15-14-11-7-6-10(8-16(11)12)9-4-2-1-3-5-9/h1-8H,(H2,13,15)

> <PUBCHEM_IUPAC_INCHIKEY>
FZRQOLPYIUHEQW-UHFFFAOYSA-N

> <PUBCHEM_XLOGP3_AA>
2.5

> <PUBCHEM_EXACT_MASS>
210.090546336

> <PUBCHEM_MOLECULAR_FORMULA>
C12H10N4

> <PUBCHEM_MOLECULAR_WEIGHT>
210.23

> <PUBCHEM_SMILES>
C1=CC=C(C=C1)C2=CN3C(=NN=C3N)C=C2

> <PUBCHEM_OPENEYE_CAN_SMILES>
C1=CC=C(C=C1)C2=CN3C(=NN=C3N)C=C2

> <PUBCHEM_OPENEYE_ISO_SMILES>
C1=CC=C(C=C1)C2=CN3C(=NN=C3N)C=C2

> <PUBCHEM_CACTVS_TPSA>
56.2

> <PUBCHEM_MONOISOTOPIC_WEIGHT>
210.090546336

> <PUBCHEM_TOTAL_CHARGE>
0

> <PUBCHEM_HEAVY_ATOM_COUNT>
16

> <PUBCHEM_ATOM_DEF_STEREO_COUNT>
0

> <PUBCHEM_ATOM_UDEF_STEREO_COUNT>
0

> <PUBCHEM_BOND_DEF_STEREO_COUNT>
0

> <PUBCHEM_BOND_UDEF_STEREO_COUNT>
0

> <PUBCHEM_ISOTOPIC_ATOM_COUNT>
0

> <PUBCHEM_COMPONENT_COUNT>
1

> <PUBCHEM_CACTVS_TAUTO_COUNT>
-1

> <PUBCHEM_COORDINATE_TYPE>
1
5
255

> <PUBCHEM_BONDANNOTATIONS>
1  11  8
1  6  8
1  7  8
12  14  8
13  15  8
14  16  8
15  16  8
2  3  8
2  7  8
3  11  8
5  6  8
5  9  8
7  10  8
8  12  8
8  13  8
9  10  8

$$$$
