49830624
  -OEChem-03202503312D

 32 34  0     0  0  0  0  0  0999 V2000
    4.9889    2.9676    0.0000 I   0  0  0  0  0  0  0  0  0  0  0  0
    5.9209   -3.3945    0.0000 O   0  0  0  0  0  0  0  0  0  0  0  0
    4.6783    0.4076    0.0000 N   0  0  0  0  0  0  0  0  0  0  0  0
    5.2619    1.2123    0.0000 N   0  0  0  0  0  0  0  0  0  0  0  0
    2.8660    0.2123    0.0000 N   0  0  0  0  0  0  0  0  0  0  0  0
    2.0000    1.7123    0.0000 N   0  0  0  0  0  0  0  0  0  0  0  0
    2.8660    3.2123    0.0000 N   0  0  0  0  0  0  0  0  0  0  0  0
    4.9889   -0.5429    0.0000 C   0  0  0  0  0  0  0  0  0  0  0  0
    5.9674   -0.7491    0.0000 C   0  0  0  0  0  0  0  0  0  0  0  0
    4.3211   -1.2872    0.0000 C   0  0  0  0  0  0  0  0  0  0  0  0
    6.2781   -1.6997    0.0000 C   0  0  0  0  0  0  0  0  0  0  0  0
    4.6318   -2.2377    0.0000 C   0  0  0  0  0  0  0  0  0  0  0  0
    5.6103   -2.4440    0.0000 C   0  0  0  0  0  0  0  0  0  0  0  0
    3.7320    0.7123    0.0000 C   0  0  0  0  0  0  0  0  0  0  0  0
    3.7320    1.7123    0.0000 C   0  0  0  0  0  0  0  0  0  0  0  0
    4.6783    2.0171    0.0000 C   0  0  0  0  0  0  0  0  0  0  0  0
    2.8660    2.2123    0.0000 C   0  0  0  0  0  0  0  0  0  0  0  0
    2.0000    0.7123    0.0000 C   0  0  0  0  0  0  0  0  0  0  0  0
    5.4030   -0.0815    0.0000 H   0  0  0  0  0  0  0  0  0  0  0  0
    6.5812   -0.6618    0.0000 H   0  0  0  0  0  0  0  0  0  0  0  0
    5.9880   -0.1295    0.0000 H   0  0  0  0  0  0  0  0  0  0  0  0
    3.9385   -0.7993    0.0000 H   0  0  0  0  0  0  0  0  0  0  0  0
    3.7742   -1.5792    0.0000 H   0  0  0  0  0  0  0  0  0  0  0  0
    6.6607   -2.1876    0.0000 H   0  0  0  0  0  0  0  0  0  0  0  0
    6.8250   -1.4076    0.0000 H   0  0  0  0  0  0  0  0  0  0  0  0
    4.0179   -2.3251    0.0000 H   0  0  0  0  0  0  0  0  0  0  0  0
    4.6112   -2.8574    0.0000 H   0  0  0  0  0  0  0  0  0  0  0  0
    6.2169   -2.5718    0.0000 H   0  0  0  0  0  0  0  0  0  0  0  0
    6.5276   -3.5223    0.0000 H   0  0  0  0  0  0  0  0  0  0  0  0
    1.4631    0.4023    0.0000 H   0  0  0  0  0  0  0  0  0  0  0  0
    2.3291    3.5223    0.0000 H   0  0  0  0  0  0  0  0  0  0  0  0
    3.4030    3.5223    0.0000 H   0  0  0  0  0  0  0  0  0  0  0  0
  1 16  1  0  0  0  0
  2 13  1  0  0  0  0
  2 29  1  0  0  0  0
  3  4  1  0  0  0  0
  3  8  1  0  0  0  0
  3 14  1  0  0  0  0
  4 16  2  0  0  0  0
  5 14  2  0  0  0  0
  5 18  1  0  0  0  0
  6 17  1  0  0  0  0
  6 18  2  0  0  0  0
  7 17  1  0  0  0  0
  7 31  1  0  0  0  0
  7 32  1  0  0  0  0
  8  9  1  0  0  0  0
  8 10  1  0  0  0  0
  8 19  1  0  0  0  0
  9 11  1  0  0  0  0
  9 20  1  0  0  0  0
  9 21  1  0  0  0  0
 10 12  1  0  0  0  0
 10 22  1  0  0  0  0
 10 23  1  0  0  0  0
 11 13  1  0  0  0  0
 11 24  1  0  0  0  0
 11 25  1  0  0  0  0
 12 13  1  0  0  0  0
 12 26  1  0  0  0  0
 12 27  1  0  0  0  0
 13 28  1  0  0  0  0
 14 15  1  0  0  0  0
 15 16  1  0  0  0  0
 15 17  2  0  0  0  0
 18 30  1  0  0  0  0
M  END
> <PUBCHEM_COMPOUND_CID>
49830624

> <PUBCHEM_COMPOUND_CANONICALIZED>
1

> <PUBCHEM_CACTVS_COMPLEXITY>
299

> <PUBCHEM_CACTVS_HBOND_ACCEPTOR>
5

> <PUBCHEM_CACTVS_HBOND_DONOR>
2

> <PUBCHEM_CACTVS_ROTATABLE_BOND>
1

> <PUBCHEM_CACTVS_SUBSKEYS>
AAADccBzoAAAAgAAAAAAAAAAAAAAAWAAAAA8QAAAAAAAAFgB+AAAHgA4CAAADDzjmwYFsN5IEgCiAgJhZACQhCsRgKAVUCAoRBCAGAJAyEAExAgMCALAACGwQAAAAAAAAAAAAAAAgAAAAAAAAAAAAAAAAA==

> <PUBCHEM_IUPAC_OPENEYE_NAME>
4-(4-amino-3-iodo-pyrazolo[3,4-d]pyrimidin-1-yl)cyclohexanol

> <PUBCHEM_IUPAC_CAS_NAME>
4-(4-amino-3-iodo-1-pyrazolo[3,4-d]pyrimidinyl)-1-cyclohexanol

> <PUBCHEM_IUPAC_NAME_MARKUP>
4-(4-amino-3-iodopyrazolo[3,4-d]pyrimidin-1-yl)cyclohexan-1-ol

> <PUBCHEM_IUPAC_NAME>
4-(4-amino-3-iodopyrazolo[3,4-d]pyrimidin-1-yl)cyclohexan-1-ol

> <PUBCHEM_IUPAC_SYSTEMATIC_NAME>
4-(4-azanyl-3-iodanyl-pyrazolo[3,4-d]pyrimidin-1-yl)cyclohexan-1-ol

> <PUBCHEM_IUPAC_TRADITIONAL_NAME>
4-(4-amino-3-iodo-pyrazolo[3,4-d]pyrimidin-1-yl)cyclohexanol

> <PUBCHEM_IUPAC_INCHI>
InChI=1S/C11H14IN5O/c12-9-8-10(13)14-5-15-11(8)17(16-9)6-1-3-7(18)4-2-6/h5-7,18H,1-4H2,(H2,13,14,15)

> <PUBCHEM_IUPAC_INCHIKEY>
RPGBQFNDFPEOON-UHFFFAOYSA-N

> <PUBCHEM_XLOGP3_AA>
1.1

> <PUBCHEM_EXACT_MASS>
359.02431

> <PUBCHEM_MOLECULAR_FORMULA>
C11H14IN5O

> <PUBCHEM_MOLECULAR_WEIGHT>
359.17

> <PUBCHEM_SMILES>
C1CC(CCC1N2C3=NC=NC(=C3C(=N2)I)N)O

> <PUBCHEM_OPENEYE_CAN_SMILES>
C1CC(CCC1N2C3=NC=NC(=C3C(=N2)I)N)O

> <PUBCHEM_OPENEYE_ISO_SMILES>
C1CC(CCC1N2C3=NC=NC(=C3C(=N2)I)N)O

> <PUBCHEM_CACTVS_TPSA>
89.9

> <PUBCHEM_MONOISOTOPIC_WEIGHT>
359.02431

> <PUBCHEM_TOTAL_CHARGE>
0

> <PUBCHEM_HEAVY_ATOM_COUNT>
18

> <PUBCHEM_ATOM_DEF_STEREO_COUNT>
0

> <PUBCHEM_ATOM_UDEF_STEREO_COUNT>
0

> <PUBCHEM_BOND_DEF_STEREO_COUNT>
0

> <PUBCHEM_BOND_UDEF_STEREO_COUNT>
0

> <PUBCHEM_ISOTOPIC_ATOM_COUNT>
0

> <PUBCHEM_COMPONENT_COUNT>
1

> <PUBCHEM_CACTVS_TAUTO_COUNT>
-1

> <PUBCHEM_COORDINATE_TYPE>
1
5
255

> <PUBCHEM_BONDANNOTATIONS>
14  15  8
15  16  8
15  17  8
3  14  8
3  4  8
4  16  8
5  14  8
5  18  8
6  17  8
6  18  8

$$$$
