6420138
  -OEChem-03202506362D

 46 49  0     0  0  0  0  0  0999 V2000
    4.0015   -1.4357    0.0000 S   0  0  0  0  0  0  0  0  0  0  0  0
   12.7663    2.5588    0.0000 O   0  0  0  0  0  0  0  0  0  0  0  0
   11.0342    1.5588    0.0000 N   0  0  0  0  0  0  0  0  0  0  0  0
    7.5701   -0.4412    0.0000 N   0  0  0  0  0  0  0  0  0  0  0  0
    5.8381   -0.4412    0.0000 N   0  0  0  0  0  0  0  0  0  0  0  0
    6.7041    1.0588    0.0000 N   0  0  0  0  0  0  0  0  0  0  0  0
    2.5233   -0.7776    0.0000 N   0  0  0  0  0  0  0  0  0  0  0  0
    2.6166   -2.5572    0.0000 N   0  0  0  0  0  0  0  0  0  0  0  0
   11.0342    2.5588    0.0000 C   0  0  0  0  0  0  0  0  0  0  0  0
   11.9002    1.0588    0.0000 C   0  0  0  0  0  0  0  0  0  0  0  0
   11.9002    3.0588    0.0000 C   0  0  0  0  0  0  0  0  0  0  0  0
   12.7663    1.5588    0.0000 C   0  0  0  0  0  0  0  0  0  0  0  0
   10.1682    1.0588    0.0000 C   0  0  0  0  0  0  0  0  0  0  0  0
   10.1682    0.0588    0.0000 C   0  0  0  0  0  0  0  0  0  0  0  0
    9.3022    1.5588    0.0000 C   0  0  0  0  0  0  0  0  0  0  0  0
    8.4361    0.0588    0.0000 C   0  0  0  0  0  0  0  0  0  0  0  0
    9.3022   -0.4412    0.0000 C   0  0  0  0  0  0  0  0  0  0  0  0
    8.4361    1.0588    0.0000 C   0  0  0  0  0  0  0  0  0  0  0  0
    6.7041    0.0588    0.0000 C   0  0  0  0  0  0  0  0  0  0  0  0
    4.9720    0.0588    0.0000 C   0  0  0  0  0  0  0  0  0  0  0  0
    4.1060   -0.4412    0.0000 C   0  0  0  0  0  0  0  0  0  0  0  0
    3.1925   -0.0345    0.0000 C   0  0  0  0  0  0  0  0  0  0  0  0
    4.9720    1.0588    0.0000 C   0  0  0  0  0  0  0  0  0  0  0  0
    5.8381    1.5588    0.0000 C   0  0  0  0  0  0  0  0  0  0  0  0
    2.9846    0.9437    0.0000 C   0  0  0  0  0  0  0  0  0  0  0  0
    3.0233   -1.6436    0.0000 C   0  0  0  0  0  0  0  0  0  0  0  0
   10.8222    3.1414    0.0000 H   0  0  0  0  0  0  0  0  0  0  0  0
   10.4236    2.4511    0.0000 H   0  0  0  0  0  0  0  0  0  0  0  0
   11.5017    0.5838    0.0000 H   0  0  0  0  0  0  0  0  0  0  0  0
   12.2988    0.5838    0.0000 H   0  0  0  0  0  0  0  0  0  0  0  0
   12.2988    3.5337    0.0000 H   0  0  0  0  0  0  0  0  0  0  0  0
   11.5017    3.5337    0.0000 H   0  0  0  0  0  0  0  0  0  0  0  0
   12.9783    0.9762    0.0000 H   0  0  0  0  0  0  0  0  0  0  0  0
   13.3769    1.6664    0.0000 H   0  0  0  0  0  0  0  0  0  0  0  0
   10.7051   -0.2512    0.0000 H   0  0  0  0  0  0  0  0  0  0  0  0
    9.3022    2.1788    0.0000 H   0  0  0  0  0  0  0  0  0  0  0  0
    9.3022   -1.0612    0.0000 H   0  0  0  0  0  0  0  0  0  0  0  0
    7.8992    1.3688    0.0000 H   0  0  0  0  0  0  0  0  0  0  0  0
    7.5701   -1.0612    0.0000 H   0  0  0  0  0  0  0  0  0  0  0  0
    4.4351    1.3688    0.0000 H   0  0  0  0  0  0  0  0  0  0  0  0
    5.8381    2.1788    0.0000 H   0  0  0  0  0  0  0  0  0  0  0  0
    3.5910    1.0726    0.0000 H   0  0  0  0  0  0  0  0  0  0  0  0
    2.8556    1.5501    0.0000 H   0  0  0  0  0  0  0  0  0  0  0  0
    2.3781    0.8148    0.0000 H   0  0  0  0  0  0  0  0  0  0  0  0
    2.0000   -2.6220    0.0000 H   0  0  0  0  0  0  0  0  0  0  0  0
    2.9810   -3.0588    0.0000 H   0  0  0  0  0  0  0  0  0  0  0  0
  1 21  1  0  0  0  0
  1 26  1  0  0  0  0
  2 11  1  0  0  0  0
  2 12  1  0  0  0  0
  3  9  1  0  0  0  0
  3 10  1  0  0  0  0
  3 13  1  0  0  0  0
  4 16  1  0  0  0  0
  4 19  1  0  0  0  0
  4 39  1  0  0  0  0
  5 19  1  0  0  0  0
  5 20  2  0  0  0  0
  6 19  2  0  0  0  0
  6 24  1  0  0  0  0
  7 22  1  0  0  0  0
  7 26  2  0  0  0  0
  8 26  1  0  0  0  0
  8 45  1  0  0  0  0
  8 46  1  0  0  0  0
  9 11  1  0  0  0  0
  9 27  1  0  0  0  0
  9 28  1  0  0  0  0
 10 12  1  0  0  0  0
 10 29  1  0  0  0  0
 10 30  1  0  0  0  0
 11 31  1  0  0  0  0
 11 32  1  0  0  0  0
 12 33  1  0  0  0  0
 12 34  1  0  0  0  0
 13 14  2  0  0  0  0
 13 15  1  0  0  0  0
 14 17  1  0  0  0  0
 14 35  1  0  0  0  0
 15 18  2  0  0  0  0
 15 36  1  0  0  0  0
 16 17  2  0  0  0  0
 16 18  1  0  0  0  0
 17 37  1  0  0  0  0
 18 38  1  0  0  0  0
 20 21  1  0  0  0  0
 20 23  1  0  0  0  0
 21 22  2  0  0  0  0
 22 25  1  0  0  0  0
 23 24  2  0  0  0  0
 23 40  1  0  0  0  0
 24 41  1  0  0  0  0
 25 42  1  0  0  0  0
 25 43  1  0  0  0  0
 25 44  1  0  0  0  0
M  END
> <PUBCHEM_COMPOUND_CID>
6420138

> <PUBCHEM_COMPOUND_CANONICALIZED>
1

> <PUBCHEM_CACTVS_COMPLEXITY>
443

> <PUBCHEM_CACTVS_HBOND_ACCEPTOR>
8

> <PUBCHEM_CACTVS_HBOND_DONOR>
2

> <PUBCHEM_CACTVS_ROTATABLE_BOND>
4

> <PUBCHEM_CACTVS_SUBSKEYS>
AAADceB7oABAAAAAAAAAAAAAAAAAAWAAAAA8WIAAAAAAAAAB8AAAHgQQAAAACAjh1gY/0ZfIFAikATRnZACC8KlxCrkJ2DQ4ZJiKKKLg2dGHJAhokALYyCcQAAAAAACAAAAAAAAAAQAAAAAAAAAAAAAAAA==

> <PUBCHEM_IUPAC_OPENEYE_NAME>
4-methyl-5-[2-(4-morpholinoanilino)pyrimidin-4-yl]thiazol-2-amine

> <PUBCHEM_IUPAC_CAS_NAME>
4-methyl-5-[2-[4-(4-morpholinyl)anilino]-4-pyrimidinyl]-2-thiazolamine

> <PUBCHEM_IUPAC_NAME_MARKUP>
4-methyl-5-[2-(4-morpholin-4-ylanilino)pyrimidin-4-yl]-1,3-thiazol-2-amine

> <PUBCHEM_IUPAC_NAME>
4-methyl-5-[2-(4-morpholin-4-ylanilino)pyrimidin-4-yl]-1,3-thiazol-2-amine

> <PUBCHEM_IUPAC_SYSTEMATIC_NAME>
4-methyl-5-[2-[(4-morpholin-4-ylphenyl)amino]pyrimidin-4-yl]-1,3-thiazol-2-amine

> <PUBCHEM_IUPAC_TRADITIONAL_NAME>
[4-(2-amino-4-methyl-thiazol-5-yl)pyrimidin-2-yl]-(4-morpholinophenyl)amine

> <PUBCHEM_IUPAC_INCHI>
InChI=1S/C18H20N6OS/c1-12-16(26-17(19)21-12)15-6-7-20-18(23-15)22-13-2-4-14(5-3-13)24-8-10-25-11-9-24/h2-7H,8-11H2,1H3,(H2,19,21)(H,20,22,23)

> <PUBCHEM_IUPAC_INCHIKEY>
GPSZYOIFQZPWEJ-UHFFFAOYSA-N

> <PUBCHEM_XLOGP3_AA>
2.6

> <PUBCHEM_EXACT_MASS>
368.14193046

> <PUBCHEM_MOLECULAR_FORMULA>
C18H20N6OS

> <PUBCHEM_MOLECULAR_WEIGHT>
368.5

> <PUBCHEM_SMILES>
CC1=C(SC(=N1)N)C2=NC(=NC=C2)NC3=CC=C(C=C3)N4CCOCC4

> <PUBCHEM_OPENEYE_CAN_SMILES>
CC1=C(SC(=N1)N)C2=NC(=NC=C2)NC3=CC=C(C=C3)N4CCOCC4

> <PUBCHEM_OPENEYE_ISO_SMILES>
CC1=C(SC(=N1)N)C2=NC(=NC=C2)NC3=CC=C(C=C3)N4CCOCC4

> <PUBCHEM_CACTVS_TPSA>
117

> <PUBCHEM_MONOISOTOPIC_WEIGHT>
368.14193046

> <PUBCHEM_TOTAL_CHARGE>
0

> <PUBCHEM_HEAVY_ATOM_COUNT>
26

> <PUBCHEM_ATOM_DEF_STEREO_COUNT>
0

> <PUBCHEM_ATOM_UDEF_STEREO_COUNT>
0

> <PUBCHEM_BOND_DEF_STEREO_COUNT>
0

> <PUBCHEM_BOND_UDEF_STEREO_COUNT>
0

> <PUBCHEM_ISOTOPIC_ATOM_COUNT>
0

> <PUBCHEM_COMPONENT_COUNT>
1

> <PUBCHEM_CACTVS_TAUTO_COUNT>
-1

> <PUBCHEM_COORDINATE_TYPE>
1
5
255

> <PUBCHEM_BONDANNOTATIONS>
1  21  8
1  26  8
13  14  8
13  15  8
14  17  8
15  18  8
16  17  8
16  18  8
20  23  8
21  22  8
23  24  8
5  19  8
5  20  8
6  19  8
6  24  8
7  22  8
7  26  8

$$$$
