49830907
  -OEChem-03202501112D

 26 28  0     0  0  0  0  0  0999 V2000
    3.7320    0.8281    0.0000 N   0  0  0  0  0  0  0  0  0  0  0  0
    5.2619    1.3282    0.0000 N   0  0  0  0  0  0  0  0  0  0  0  0
    2.0000    0.8281    0.0000 N   0  0  0  0  0  0  0  0  0  0  0  0
    2.8660   -0.6719    0.0000 N   0  0  0  0  0  0  0  0  0  0  0  0
    4.6783    0.5234    0.0000 C   0  0  0  0  0  0  0  0  0  0  0  0
    3.7320    1.8282    0.0000 C   0  0  0  0  0  0  0  0  0  0  0  0
    4.9889   -0.4271    0.0000 C   0  0  0  0  0  0  0  0  0  0  0  0
    2.8660    0.3281    0.0000 C   0  0  0  0  0  0  0  0  0  0  0  0
    4.6783    2.1329    0.0000 C   0  0  0  0  0  0  0  0  0  0  0  0
    2.8660    2.3282    0.0000 C   0  0  0  0  0  0  0  0  0  0  0  0
    4.3211   -1.1714    0.0000 C   0  0  0  0  0  0  0  0  0  0  0  0
    5.9674   -0.6333    0.0000 C   0  0  0  0  0  0  0  0  0  0  0  0
    2.0000    1.8282    0.0000 C   0  0  0  0  0  0  0  0  0  0  0  0
    4.6318   -2.1219    0.0000 C   0  0  0  0  0  0  0  0  0  0  0  0
    6.2781   -1.5838    0.0000 C   0  0  0  0  0  0  0  0  0  0  0  0
    5.6103   -2.3282    0.0000 C   0  0  0  0  0  0  0  0  0  0  0  0
    4.8709    2.7222    0.0000 H   0  0  0  0  0  0  0  0  0  0  0  0
    2.8660    2.9482    0.0000 H   0  0  0  0  0  0  0  0  0  0  0  0
    3.7144   -1.0436    0.0000 H   0  0  0  0  0  0  0  0  0  0  0  0
    6.3815   -0.1719    0.0000 H   0  0  0  0  0  0  0  0  0  0  0  0
    1.4631    2.1382    0.0000 H   0  0  0  0  0  0  0  0  0  0  0  0
    4.2177   -2.5834    0.0000 H   0  0  0  0  0  0  0  0  0  0  0  0
    6.8848   -1.7117    0.0000 H   0  0  0  0  0  0  0  0  0  0  0  0
    2.3291   -0.9819    0.0000 H   0  0  0  0  0  0  0  0  0  0  0  0
    3.4030   -0.9819    0.0000 H   0  0  0  0  0  0  0  0  0  0  0  0
    5.8029   -2.9175    0.0000 H   0  0  0  0  0  0  0  0  0  0  0  0
  1  5  1  0  0  0  0
  1  6  1  0  0  0  0
  1  8  1  0  0  0  0
  2  5  2  0  0  0  0
  2  9  1  0  0  0  0
  3  8  2  0  0  0  0
  3 13  1  0  0  0  0
  4  8  1  0  0  0  0
  4 24  1  0  0  0  0
  4 25  1  0  0  0  0
  5  7  1  0  0  0  0
  6  9  2  0  0  0  0
  6 10  1  0  0  0  0
  7 11  2  0  0  0  0
  7 12  1  0  0  0  0
  9 17  1  0  0  0  0
 10 13  2  0  0  0  0
 10 18  1  0  0  0  0
 11 14  1  0  0  0  0
 11 19  1  0  0  0  0
 12 15  2  0  0  0  0
 12 20  1  0  0  0  0
 13 21  1  0  0  0  0
 14 16  2  0  0  0  0
 14 22  1  0  0  0  0
 15 16  1  0  0  0  0
 15 23  1  0  0  0  0
 16 26  1  0  0  0  0
M  END
> <PUBCHEM_COMPOUND_CID>
49830907

> <PUBCHEM_COMPOUND_CANONICALIZED>
1

> <PUBCHEM_CACTVS_COMPLEXITY>
239

> <PUBCHEM_CACTVS_HBOND_ACCEPTOR>
3

> <PUBCHEM_CACTVS_HBOND_DONOR>
1

> <PUBCHEM_CACTVS_ROTATABLE_BOND>
1

> <PUBCHEM_CACTVS_SUBSKEYS>
AAADccBzgAAAAAAAAAAAAAAAAAAAAWAAAAA8QAAAAAAAAFgB8AAAHAAQAAAADAjBHwQ90LdMGACgAzZnZACCgC0xEqAJ2CA4dJiIaKLA2dGUJAhogALIyCcQgAAOAAAAAAAAAAAAAAAAAAAAAAAAAAAAAA==

> <PUBCHEM_IUPAC_OPENEYE_NAME>
3-phenylimidazo[1,5-c]pyrimidin-5-amine

> <PUBCHEM_IUPAC_CAS_NAME>
3-phenyl-5-imidazo[1,5-c]pyrimidinamine

> <PUBCHEM_IUPAC_NAME_MARKUP>
3-phenylimidazo[1,5-c]pyrimidin-5-amine

> <PUBCHEM_IUPAC_NAME>
3-phenylimidazo[1,5-c]pyrimidin-5-amine

> <PUBCHEM_IUPAC_SYSTEMATIC_NAME>
3-phenylimidazo[1,5-c]pyrimidin-5-amine

> <PUBCHEM_IUPAC_TRADITIONAL_NAME>
(3-phenylimidazo[1,5-c]pyrimidin-5-yl)amine

> <PUBCHEM_IUPAC_INCHI>
InChI=1S/C12H10N4/c13-12-14-7-6-10-8-15-11(16(10)12)9-4-2-1-3-5-9/h1-8H,(H2,13,14)

> <PUBCHEM_IUPAC_INCHIKEY>
NUJBDRXQVQPKQC-UHFFFAOYSA-N

> <PUBCHEM_XLOGP3_AA>
2.5

> <PUBCHEM_EXACT_MASS>
210.090546336

> <PUBCHEM_MOLECULAR_FORMULA>
C12H10N4

> <PUBCHEM_MOLECULAR_WEIGHT>
210.23

> <PUBCHEM_SMILES>
C1=CC=C(C=C1)C2=NC=C3N2C(=NC=C3)N

> <PUBCHEM_OPENEYE_CAN_SMILES>
C1=CC=C(C=C1)C2=NC=C3N2C(=NC=C3)N

> <PUBCHEM_OPENEYE_ISO_SMILES>
C1=CC=C(C=C1)C2=NC=C3N2C(=NC=C3)N

> <PUBCHEM_CACTVS_TPSA>
56.2

> <PUBCHEM_MONOISOTOPIC_WEIGHT>
210.090546336

> <PUBCHEM_TOTAL_CHARGE>
0

> <PUBCHEM_HEAVY_ATOM_COUNT>
16

> <PUBCHEM_ATOM_DEF_STEREO_COUNT>
0

> <PUBCHEM_ATOM_UDEF_STEREO_COUNT>
0

> <PUBCHEM_BOND_DEF_STEREO_COUNT>
0

> <PUBCHEM_BOND_UDEF_STEREO_COUNT>
0

> <PUBCHEM_ISOTOPIC_ATOM_COUNT>
0

> <PUBCHEM_COMPONENT_COUNT>
1

> <PUBCHEM_CACTVS_TAUTO_COUNT>
-1

> <PUBCHEM_COORDINATE_TYPE>
1
5
255

> <PUBCHEM_BONDANNOTATIONS>
1  5  8
1  6  8
1  8  8
10  13  8
11  14  8
12  15  8
14  16  8
15  16  8
2  5  8
2  9  8
3  13  8
3  8  8
6  10  8
6  9  8
7  11  8
7  12  8

$$$$
