16211077
  -OEChem-03202506422D

 54 56  0     1  0  0  0  0  0999 V2000
    7.6977    1.4324    0.0000 O   0  0  0  0  0  0  0  0  0  0  0  0
    9.1922   -0.0019    0.0000 O   0  0  0  0  0  0  0  0  0  0  0  0
    6.6099   -0.9154    0.0000 O   0  0  0  0  0  0  0  0  0  0  0  0
    9.4578    1.1536    0.0000 O   0  0  0  0  0  0  0  0  0  0  0  0
    8.3788   -1.8290    0.0000 O   0  0  0  0  0  0  0  0  0  0  0  0
    5.7297    2.1318    0.0000 O   0  0  0  0  0  0  0  0  0  0  0  0
    6.9775   -2.8471    0.0000 O   0  0  0  0  0  0  0  0  0  0  0  0
    4.0355    1.7717    0.0000 O   0  0  0  0  0  0  0  0  0  0  0  0
    8.3341   -6.1877    0.0000 O   0  0  0  0  0  0  0  0  0  0  0  0
   11.1367   -4.1515    0.0000 O   0  0  0  0  0  0  0  0  0  0  0  0
    5.8492    5.7354    0.0000 O   0  0  0  0  0  0  0  0  0  0  0  0
    2.4608    5.0151    0.0000 O   0  0  0  0  0  0  0  0  0  0  0  0
   10.3232   -5.9786    0.0000 O   0  0  0  0  0  0  0  0  0  0  0  0
    3.9470    6.3534    0.0000 O   0  0  0  0  0  0  0  0  0  0  0  0
    8.1977   -0.1064    0.0000 C   0  0  2  0  0  0  0  0  0  0  0  0
    7.1977   -0.1064    0.0000 C   0  0  1  0  0  0  0  0  0  0  0  0
    6.8887    0.8446    0.0000 C   0  0  1  0  0  0  0  0  0  0  0  0
    8.5067    0.8446    0.0000 C   0  0  3  0  0  0  0  0  0  0  0  0
    7.7910   -1.0200    0.0000 C   0  0  0  0  0  0  0  0  0  0  0  0
    5.9376    1.1536    0.0000 C   0  0  0  0  0  0  0  0  0  0  0  0
    7.9720   -2.7425    0.0000 C   0  0  0  0  0  0  0  0  0  0  0  0
    4.7787    2.4408    0.0000 C   0  0  0  0  0  0  0  0  0  0  0  0
    8.5598   -3.5516    0.0000 C   0  0  0  0  0  0  0  0  0  0  0  0
    4.5708    3.4190    0.0000 C   0  0  0  0  0  0  0  0  0  0  0  0
    9.5544   -3.4470    0.0000 C   0  0  0  0  0  0  0  0  0  0  0  0
    8.1531   -4.4651    0.0000 C   0  0  0  0  0  0  0  0  0  0  0  0
    3.6197    3.7280    0.0000 C   0  0  0  0  0  0  0  0  0  0  0  0
    5.3139    4.0881    0.0000 C   0  0  0  0  0  0  0  0  0  0  0  0
    8.7409   -5.2741    0.0000 C   0  0  0  0  0  0  0  0  0  0  0  0
   10.1421   -4.2560    0.0000 C   0  0  0  0  0  0  0  0  0  0  0  0
    5.1060    5.0662    0.0000 C   0  0  0  0  0  0  0  0  0  0  0  0
    3.4118    4.7061    0.0000 C   0  0  0  0  0  0  0  0  0  0  0  0
    9.7354   -5.1696    0.0000 C   0  0  0  0  0  0  0  0  0  0  0  0
    4.1550    5.3753    0.0000 C   0  0  0  0  0  0  0  0  0  0  0  0
    6.5854   -0.0094    0.0000 H   0  0  0  0  0  0  0  0  0  0  0  0
    6.7917    1.4570    0.0000 H   0  0  0  0  0  0  0  0  0  0  0  0
    8.6037    1.4570    0.0000 H   0  0  0  0  0  0  0  0  0  0  0  0
    7.2770   -0.6733    0.0000 H   0  0  0  0  0  0  0  0  0  0  0  0
    7.3603   -1.4660    0.0000 H   0  0  0  0  0  0  0  0  0  0  0  0
    5.3180    1.1320    0.0000 H   0  0  0  0  0  0  0  0  0  0  0  0
    5.8514    0.5397    0.0000 H   0  0  0  0  0  0  0  0  0  0  0  0
    9.5567   -0.5035    0.0000 H   0  0  0  0  0  0  0  0  0  0  0  0
    5.9933   -0.8506    0.0000 H   0  0  0  0  0  0  0  0  0  0  0  0
    9.5867    1.7601    0.0000 H   0  0  0  0  0  0  0  0  0  0  0  0
    9.8065   -2.8806    0.0000 H   0  0  0  0  0  0  0  0  0  0  0  0
    7.5365   -4.5299    0.0000 H   0  0  0  0  0  0  0  0  0  0  0  0
    3.1590    3.3131    0.0000 H   0  0  0  0  0  0  0  0  0  0  0  0
    5.9036    3.8965    0.0000 H   0  0  0  0  0  0  0  0  0  0  0  0
    7.7175   -6.2525    0.0000 H   0  0  0  0  0  0  0  0  0  0  0  0
   11.3888   -3.5851    0.0000 H   0  0  0  0  0  0  0  0  0  0  0  0
    6.4388    5.5438    0.0000 H   0  0  0  0  0  0  0  0  0  0  0  0
    2.0000    4.6003    0.0000 H   0  0  0  0  0  0  0  0  0  0  0  0
   10.0710   -6.5450    0.0000 H   0  0  0  0  0  0  0  0  0  0  0  0
    3.3574    6.5450    0.0000 H   0  0  0  0  0  0  0  0  0  0  0  0
  1 17  1  0  0  0  0
  1 18  1  0  0  0  0
 15  2  1  6  0  0  0
  2 42  1  0  0  0  0
 16  3  1  6  0  0  0
  3 43  1  0  0  0  0
  4 18  1  0  0  0  0
  4 44  1  0  0  0  0
  5 19  1  0  0  0  0
  5 21  1  0  0  0  0
  6 20  1  0  0  0  0
  6 22  1  0  0  0  0
  7 21  2  0  0  0  0
  8 22  2  0  0  0  0
  9 29  1  0  0  0  0
  9 49  1  0  0  0  0
 10 30  1  0  0  0  0
 10 50  1  0  0  0  0
 11 31  1  0  0  0  0
 11 51  1  0  0  0  0
 12 32  1  0  0  0  0
 12 52  1  0  0  0  0
 13 33  1  0  0  0  0
 13 53  1  0  0  0  0
 14 34  1  0  0  0  0
 14 54  1  0  0  0  0
 15 16  1  0  0  0  0
 15 18  1  0  0  0  0
 15 19  1  0  0  0  0
 16 17  1  0  0  0  0
 16 35  1  0  0  0  0
 17 20  1  1  0  0  0
 17 36  1  0  0  0  0
 18 37  1  0  0  0  0
 19 38  1  0  0  0  0
 19 39  1  0  0  0  0
 20 40  1  0  0  0  0
 20 41  1  0  0  0  0
 21 23  1  0  0  0  0
 22 24  1  0  0  0  0
 23 25  2  0  0  0  0
 23 26  1  0  0  0  0
 24 27  2  0  0  0  0
 24 28  1  0  0  0  0
 25 30  1  0  0  0  0
 25 45  1  0  0  0  0
 26 29  2  0  0  0  0
 26 46  1  0  0  0  0
 27 32  1  0  0  0  0
 27 47  1  0  0  0  0
 28 31  2  0  0  0  0
 28 48  1  0  0  0  0
 29 33  1  0  0  0  0
 30 33  2  0  0  0  0
 31 34  1  0  0  0  0
 32 34  2  0  0  0  0
M  END
> <PUBCHEM_COMPOUND_CID>
16211077

> <PUBCHEM_COMPOUND_CANONICALIZED>
1

> <PUBCHEM_CACTVS_COMPLEXITY>
710

> <PUBCHEM_CACTVS_HBOND_ACCEPTOR>
14

> <PUBCHEM_CACTVS_HBOND_DONOR>
9

> <PUBCHEM_CACTVS_ROTATABLE_BOND>
8

> <PUBCHEM_CACTVS_SUBSKEYS>
AAADceB4PAAAAAAAAAAAAAAAAAAAASAAAAAwYAAAAAAAAAABQAAAGgAACAAADFSwmAMwDoAABgCIAiDSCAACAAAkIAAAiAEGiMgZNzKCNRqCcQElwBUPuYfK7DzOIAABCAAAQABAAAIQAACAAAAAAAAAAA==

> <PUBCHEM_IUPAC_OPENEYE_NAME>
[(2R,3R,4R)-3,4,5-trihydroxy-4-[(3,4,5-trihydroxybenzoyl)oxymethyl]tetrahydrofuran-2-yl]methyl 3,4,5-trihydroxybenzoate

> <PUBCHEM_IUPAC_CAS_NAME>
3,4,5-trihydroxybenzoic acid [(2R,3R,4R)-3,4,5-trihydroxy-4-[[oxo-(3,4,5-trihydroxyphenyl)methoxy]methyl]-2-oxolanyl]methyl ester

> <PUBCHEM_IUPAC_NAME_MARKUP>
[(2<I>R</I>,3<I>R</I>,4<I>R</I>)-3,4,5-trihydroxy-4-[(3,4,5-trihydroxybenzoyl)oxymethyl]oxolan-2-yl]methyl 3,4,5-trihydroxybenzoate

> <PUBCHEM_IUPAC_NAME>
[(2R,3R,4R)-3,4,5-trihydroxy-4-[(3,4,5-trihydroxybenzoyl)oxymethyl]oxolan-2-yl]methyl 3,4,5-trihydroxybenzoate

> <PUBCHEM_IUPAC_SYSTEMATIC_NAME>
[(2R,3R,4R)-3,4,5-tris(oxidanyl)-4-[[3,4,5-tris(oxidanyl)phenyl]carbonyloxymethyl]oxolan-2-yl]methyl 3,4,5-tris(oxidanyl)benzoate

> <PUBCHEM_IUPAC_TRADITIONAL_NAME>
3,4,5-trihydroxybenzoic acid [(2R,3R,4R)-4-(galloyloxymethyl)-3,4,5-trihydroxy-tetrahydrofuran-2-yl]methyl ester

> <PUBCHEM_IUPAC_INCHI>
InChI=1S/C20H20O14/c21-9-1-7(2-10(22)14(9)25)17(28)32-5-13-16(27)20(31,19(30)34-13)6-33-18(29)8-3-11(23)15(26)12(24)4-8/h1-4,13,16,19,21-27,30-31H,5-6H2/t13-,16-,19?,20-/m1/s1

> <PUBCHEM_IUPAC_INCHIKEY>
FEPAFOYQTIEEIS-IZUGRSKYSA-N

> <PUBCHEM_XLOGP3_AA>
-1.1

> <PUBCHEM_EXACT_MASS>
484.08530531

> <PUBCHEM_MOLECULAR_FORMULA>
C20H20O14

> <PUBCHEM_MOLECULAR_WEIGHT>
484.4

> <PUBCHEM_SMILES>
C1=C(C=C(C(=C1O)O)O)C(=O)OC[C@@H]2[C@H]([C@@](C(O2)O)(COC(=O)C3=CC(=C(C(=C3)O)O)O)O)O

> <PUBCHEM_OPENEYE_CAN_SMILES>
C1=C(C=C(C(=C1O)O)O)C(=O)OCC2C(C(C(O2)O)(COC(=O)C3=CC(=C(C(=C3)O)O)O)O)O

> <PUBCHEM_OPENEYE_ISO_SMILES>
C1=C(C=C(C(=C1O)O)O)C(=O)OC[C@@H]2[C@H]([C@@](C(O2)O)(COC(=O)C3=CC(=C(C(=C3)O)O)O)O)O

> <PUBCHEM_CACTVS_TPSA>
244

> <PUBCHEM_MONOISOTOPIC_WEIGHT>
484.08530531

> <PUBCHEM_TOTAL_CHARGE>
0

> <PUBCHEM_HEAVY_ATOM_COUNT>
34

> <PUBCHEM_ATOM_DEF_STEREO_COUNT>
3

> <PUBCHEM_ATOM_UDEF_STEREO_COUNT>
1

> <PUBCHEM_BOND_DEF_STEREO_COUNT>
0

> <PUBCHEM_BOND_UDEF_STEREO_COUNT>
0

> <PUBCHEM_ISOTOPIC_ATOM_COUNT>
0

> <PUBCHEM_COMPONENT_COUNT>
1

> <PUBCHEM_CACTVS_TAUTO_COUNT>
-1

> <PUBCHEM_COORDINATE_TYPE>
1
5
255

> <PUBCHEM_BONDANNOTATIONS>
17  20  5
15  2  6
23  25  8
23  26  8
24  27  8
24  28  8
25  30  8
26  29  8
27  32  8
28  31  8
29  33  8
16  3  6
30  33  8
31  34  8
32  34  8
18  4  3

$$$$
