49830736
  -OEChem-03202502152D

 58 61  0     1  0  0  0  0  0999 V2000
    6.4641    3.1931    0.0000 F   0  0  0  0  0  0  0  0  0  0  0  0
    5.4641    4.1931    0.0000 F   0  0  0  0  0  0  0  0  0  0  0  0
    4.4641    3.1931    0.0000 F   0  0  0  0  0  0  0  0  0  0  0  0
   14.7107   -3.5731    0.0000 O   0  0  0  0  0  0  0  0  0  0  0  0
   12.9787   -3.5731    0.0000 O   0  0  0  0  0  0  0  0  0  0  0  0
    8.2788   -1.0094    0.0000 O   0  0  0  0  0  0  0  0  0  0  0  0
    3.7320    2.1931    0.0000 O   0  0  0  0  0  0  0  0  0  0  0  0
   12.7569    0.2748    0.0000 N   0  0  0  0  0  0  0  0  0  0  0  0
    8.1097    0.5998    0.0000 N   0  0  0  0  0  0  0  0  0  0  0  0
    7.3007   -0.8014    0.0000 N   0  0  0  0  0  0  0  0  0  0  0  0
   13.3447   -0.5342    0.0000 C   0  0  3  0  0  0  0  0  0  0  0  0
   13.8447   -2.0731    0.0000 C   0  0  3  0  0  0  0  0  0  0  0  0
   13.0357   -1.4853    0.0000 C   0  0  0  0  0  0  0  0  0  0  0  0
   14.3447   -0.5342    0.0000 C   0  0  0  0  0  0  0  0  0  0  0  0
   14.6537   -1.4853    0.0000 C   0  0  0  0  0  0  0  0  0  0  0  0
   13.8447   -3.0731    0.0000 C   0  0  0  0  0  0  0  0  0  0  0  0
   11.7624    0.1703    0.0000 C   0  0  0  0  0  0  0  0  0  0  0  0
   11.1746    0.9793    0.0000 C   0  0  0  0  0  0  0  0  0  0  0  0
   11.3557   -0.7433    0.0000 C   0  0  0  0  0  0  0  0  0  0  0  0
   10.1801    0.8747    0.0000 C   0  0  0  0  0  0  0  0  0  0  0  0
   10.3611   -0.8478    0.0000 C   0  0  0  0  0  0  0  0  0  0  0  0
    9.7734   -0.0388    0.0000 C   0  0  0  0  0  0  0  0  0  0  0  0
    8.7788   -0.1433    0.0000 C   0  0  0  0  0  0  0  0  0  0  0  0
    7.1962    0.1931    0.0000 C   0  0  0  0  0  0  0  0  0  0  0  0
    6.3301    0.6931    0.0000 C   0  0  0  0  0  0  0  0  0  0  0  0
    5.4641    2.1931    0.0000 C   0  0  0  0  0  0  0  0  0  0  0  0
    4.5981    1.6931    0.0000 C   0  0  0  0  0  0  0  0  0  0  0  0
    6.3301    1.6931    0.0000 C   0  0  0  0  0  0  0  0  0  0  0  0
    2.8660    1.6931    0.0000 C   0  0  0  0  0  0  0  0  0  0  0  0
    5.4641    0.1931    0.0000 C   0  0  0  0  0  0  0  0  0  0  0  0
    4.5981    0.6931    0.0000 C   0  0  0  0  0  0  0  0  0  0  0  0
    5.4641    3.1931    0.0000 C   0  0  0  0  0  0  0  0  0  0  0  0
    2.0000    2.1931    0.0000 C   0  0  0  0  0  0  0  0  0  0  0  0
    2.8660    0.6931    0.0000 C   0  0  0  0  0  0  0  0  0  0  0  0
   13.6262    0.0182    0.0000 H   0  0  0  0  0  0  0  0  0  0  0  0
   14.3971   -2.3546    0.0000 H   0  0  0  0  0  0  0  0  0  0  0  0
   12.4693   -1.2331    0.0000 H   0  0  0  0  0  0  0  0  0  0  0  0
   12.7257   -2.0222    0.0000 H   0  0  0  0  0  0  0  0  0  0  0  0
   14.9512   -0.4053    0.0000 H   0  0  0  0  0  0  0  0  0  0  0  0
   14.2799    0.0824    0.0000 H   0  0  0  0  0  0  0  0  0  0  0  0
   14.9637   -2.0222    0.0000 H   0  0  0  0  0  0  0  0  0  0  0  0
   15.2201   -1.2331    0.0000 H   0  0  0  0  0  0  0  0  0  0  0  0
   13.0091    0.8412    0.0000 H   0  0  0  0  0  0  0  0  0  0  0  0
   14.7107   -4.1931    0.0000 H   0  0  0  0  0  0  0  0  0  0  0  0
   11.4268    1.5457    0.0000 H   0  0  0  0  0  0  0  0  0  0  0  0
   11.7201   -1.2449    0.0000 H   0  0  0  0  0  0  0  0  0  0  0  0
    9.8157    1.3763    0.0000 H   0  0  0  0  0  0  0  0  0  0  0  0
   10.1090   -1.4142    0.0000 H   0  0  0  0  0  0  0  0  0  0  0  0
    6.8671    2.0031    0.0000 H   0  0  0  0  0  0  0  0  0  0  0  0
    3.4030    1.3831    0.0000 H   0  0  0  0  0  0  0  0  0  0  0  0
    5.4641   -0.4269    0.0000 H   0  0  0  0  0  0  0  0  0  0  0  0
    4.0611    0.3831    0.0000 H   0  0  0  0  0  0  0  0  0  0  0  0
    2.3100    2.7300    0.0000 H   0  0  0  0  0  0  0  0  0  0  0  0
    1.4631    2.5031    0.0000 H   0  0  0  0  0  0  0  0  0  0  0  0
    1.6900    1.6561    0.0000 H   0  0  0  0  0  0  0  0  0  0  0  0
    2.2460    0.6931    0.0000 H   0  0  0  0  0  0  0  0  0  0  0  0
    2.8660    0.0731    0.0000 H   0  0  0  0  0  0  0  0  0  0  0  0
    3.4860    0.6931    0.0000 H   0  0  0  0  0  0  0  0  0  0  0  0
  1 32  1  0  0  0  0
  2 32  1  0  0  0  0
  3 32  1  0  0  0  0
  4 16  1  0  0  0  0
  4 44  1  0  0  0  0
  5 16  2  0  0  0  0
  6 10  1  0  0  0  0
  6 23  1  0  0  0  0
  7 27  1  0  0  0  0
  7 29  1  0  0  0  0
  8 11  1  0  0  0  0
  8 17  1  0  0  0  0
  8 43  1  0  0  0  0
  9 23  2  0  0  0  0
  9 24  1  0  0  0  0
 10 24  2  0  0  0  0
 11 13  1  0  0  0  0
 11 14  1  0  0  0  0
 11 35  1  0  0  0  0
 12 13  1  0  0  0  0
 12 15  1  0  0  0  0
 12 16  1  0  0  0  0
 12 36  1  0  0  0  0
 13 37  1  0  0  0  0
 13 38  1  0  0  0  0
 14 15  1  0  0  0  0
 14 39  1  0  0  0  0
 14 40  1  0  0  0  0
 15 41  1  0  0  0  0
 15 42  1  0  0  0  0
 17 18  2  0  0  0  0
 17 19  1  0  0  0  0
 18 20  1  0  0  0  0
 18 45  1  0  0  0  0
 19 21  2  0  0  0  0
 19 46  1  0  0  0  0
 20 22  2  0  0  0  0
 20 47  1  0  0  0  0
 21 22  1  0  0  0  0
 21 48  1  0  0  0  0
 22 23  1  0  0  0  0
 24 25  1  0  0  0  0
 25 28  2  0  0  0  0
 25 30  1  0  0  0  0
 26 27  2  0  0  0  0
 26 28  1  0  0  0  0
 26 32  1  0  0  0  0
 27 31  1  0  0  0  0
 28 49  1  0  0  0  0
 29 33  1  0  0  0  0
 29 34  1  0  0  0  0
 29 50  1  0  0  0  0
 30 31  2  0  0  0  0
 30 51  1  0  0  0  0
 31 52  1  0  0  0  0
 33 53  1  0  0  0  0
 33 54  1  0  0  0  0
 33 55  1  0  0  0  0
 34 56  1  0  0  0  0
 34 57  1  0  0  0  0
 34 58  1  0  0  0  0
M  END
> <PUBCHEM_COMPOUND_CID>
49830736

> <PUBCHEM_COMPOUND_CANONICALIZED>
1

> <PUBCHEM_CACTVS_COMPLEXITY>
687

> <PUBCHEM_CACTVS_HBOND_ACCEPTOR>
10

> <PUBCHEM_CACTVS_HBOND_DONOR>
2

> <PUBCHEM_CACTVS_ROTATABLE_BOND>
7

> <PUBCHEM_CACTVS_SUBSKEYS>
AAADceB7OYAAAAAAAAAAAAAAAAAAAeIAAAAwYAAAAAAAAAAB0AAAHwAUCAAADTzhmxYz3obYFgCpAifyfgCCiAklIqApiKEubNiMLrLEvZuGeSjk1RPI6Ye82WOeKAACAAAIAABQAAQAABAAACAAAAAAAA==

> <PUBCHEM_IUPAC_OPENEYE_NAME>
3-[4-[3-[4-isopropoxy-3-(trifluoromethyl)phenyl]-1,2,4-oxadiazol-5-yl]anilino]cyclopentanecarboxylic acid

> <PUBCHEM_IUPAC_CAS_NAME>
3-[4-[3-[4-propan-2-yloxy-3-(trifluoromethyl)phenyl]-1,2,4-oxadiazol-5-yl]anilino]-1-cyclopentanecarboxylic acid

> <PUBCHEM_IUPAC_NAME_MARKUP>
3-[4-[3-[4-propan-2-yloxy-3-(trifluoromethyl)phenyl]-1,2,4-oxadiazol-5-yl]anilino]cyclopentane-1-carboxylic acid

> <PUBCHEM_IUPAC_NAME>
3-[4-[3-[4-propan-2-yloxy-3-(trifluoromethyl)phenyl]-1,2,4-oxadiazol-5-yl]anilino]cyclopentane-1-carboxylic acid

> <PUBCHEM_IUPAC_SYSTEMATIC_NAME>
3-[[4-[3-[4-propan-2-yloxy-3-(trifluoromethyl)phenyl]-1,2,4-oxadiazol-5-yl]phenyl]amino]cyclopentane-1-carboxylic acid

> <PUBCHEM_IUPAC_TRADITIONAL_NAME>
3-[4-[3-[4-isopropoxy-3-(trifluoromethyl)phenyl]-1,2,4-oxadiazol-5-yl]anilino]cyclopentanecarboxylic acid

> <PUBCHEM_IUPAC_INCHI>
InChI=1S/C24H24F3N3O4/c1-13(2)33-20-10-6-15(12-19(20)24(25,26)27)21-29-22(34-30-21)14-3-7-17(8-4-14)28-18-9-5-16(11-18)23(31)32/h3-4,6-8,10,12-13,16,18,28H,5,9,11H2,1-2H3,(H,31,32)

> <PUBCHEM_IUPAC_INCHIKEY>
PSYVPXWWLKLHBA-UHFFFAOYSA-N

> <PUBCHEM_XLOGP3_AA>
5.5

> <PUBCHEM_EXACT_MASS>
475.17189074

> <PUBCHEM_MOLECULAR_FORMULA>
C24H24F3N3O4

> <PUBCHEM_MOLECULAR_WEIGHT>
475.5

> <PUBCHEM_SMILES>
CC(C)OC1=C(C=C(C=C1)C2=NOC(=N2)C3=CC=C(C=C3)NC4CCC(C4)C(=O)O)C(F)(F)F

> <PUBCHEM_OPENEYE_CAN_SMILES>
CC(C)OC1=C(C=C(C=C1)C2=NOC(=N2)C3=CC=C(C=C3)NC4CCC(C4)C(=O)O)C(F)(F)F

> <PUBCHEM_OPENEYE_ISO_SMILES>
CC(C)OC1=C(C=C(C=C1)C2=NOC(=N2)C3=CC=C(C=C3)NC4CCC(C4)C(=O)O)C(F)(F)F

> <PUBCHEM_CACTVS_TPSA>
97.5

> <PUBCHEM_MONOISOTOPIC_WEIGHT>
475.17189074

> <PUBCHEM_TOTAL_CHARGE>
0

> <PUBCHEM_HEAVY_ATOM_COUNT>
34

> <PUBCHEM_ATOM_DEF_STEREO_COUNT>
0

> <PUBCHEM_ATOM_UDEF_STEREO_COUNT>
2

> <PUBCHEM_BOND_DEF_STEREO_COUNT>
0

> <PUBCHEM_BOND_UDEF_STEREO_COUNT>
0

> <PUBCHEM_ISOTOPIC_ATOM_COUNT>
0

> <PUBCHEM_COMPONENT_COUNT>
1

> <PUBCHEM_CACTVS_TAUTO_COUNT>
-1

> <PUBCHEM_COORDINATE_TYPE>
1
5
255

> <PUBCHEM_BONDANNOTATIONS>
10  24  8
12  16  3
17  18  8
17  19  8
18  20  8
19  21  8
20  22  8
21  22  8
25  28  8
25  30  8
26  27  8
26  28  8
27  31  8
30  31  8
6  10  8
6  23  8
11  8  3
9  23  8
9  24  8

$$$$
