24905244
  -OEChem-03202500002D

 37 40  0     0  0  0  0  0  0999 V2000
    3.9639    3.1866    0.0000 F   0  0  0  0  0  0  0  0  0  0  0  0
    4.6783   -1.8125    0.0000 N   0  0  0  0  0  0  0  0  0  0  0  0
    5.2619   -1.0077    0.0000 N   0  0  0  0  0  0  0  0  0  0  0  0
    2.8660   -2.0077    0.0000 N   0  0  0  0  0  0  0  0  0  0  0  0
    7.1859    2.3094    0.0000 N   0  0  0  0  0  0  0  0  0  0  0  0
    2.0000   -0.5077    0.0000 N   0  0  0  0  0  0  0  0  0  0  0  0
    2.8660    0.9923    0.0000 N   0  0  0  0  0  0  0  0  0  0  0  0
    7.0828    3.2981    0.0000 N   0  0  0  0  0  0  0  0  0  0  0  0
    4.9889   -2.7630    0.0000 C   0  0  0  0  0  0  0  0  0  0  0  0
    3.7320   -0.5077    0.0000 C   0  0  0  0  0  0  0  0  0  0  0  0
    4.6783   -0.2030    0.0000 C   0  0  0  0  0  0  0  0  0  0  0  0
    3.7320   -1.5077    0.0000 C   0  0  0  0  0  0  0  0  0  0  0  0
    4.9889    0.7475    0.0000 C   0  0  0  0  0  0  0  0  0  0  0  0
    5.9674   -2.9692    0.0000 C   0  0  0  0  0  0  0  0  0  0  0  0
    4.3211   -3.5073    0.0000 C   0  0  0  0  0  0  0  0  0  0  0  0
    2.8660   -0.0077    0.0000 C   0  0  0  0  0  0  0  0  0  0  0  0
    5.9674    0.9537    0.0000 C   0  0  0  0  0  0  0  0  0  0  0  0
    6.2781    1.9042    0.0000 C   0  0  0  0  0  0  0  0  0  0  0  0
    4.3211    1.4918    0.0000 C   0  0  0  0  0  0  0  0  0  0  0  0
    5.6103    2.6486    0.0000 C   0  0  0  0  0  0  0  0  0  0  0  0
    4.6318    2.4423    0.0000 C   0  0  0  0  0  0  0  0  0  0  0  0
    2.0000   -1.5077    0.0000 C   0  0  0  0  0  0  0  0  0  0  0  0
    6.1110    3.5073    0.0000 C   0  0  0  0  0  0  0  0  0  0  0  0
    5.4030   -2.3015    0.0000 H   0  0  0  0  0  0  0  0  0  0  0  0
    5.8396   -3.5759    0.0000 H   0  0  0  0  0  0  0  0  0  0  0  0
    6.5741   -3.0971    0.0000 H   0  0  0  0  0  0  0  0  0  0  0  0
    6.0953   -2.3625    0.0000 H   0  0  0  0  0  0  0  0  0  0  0  0
    3.8596   -3.0932    0.0000 H   0  0  0  0  0  0  0  0  0  0  0  0
    3.9070   -3.9688    0.0000 H   0  0  0  0  0  0  0  0  0  0  0  0
    4.7826   -3.9214    0.0000 H   0  0  0  0  0  0  0  0  0  0  0  0
    6.3815    0.4923    0.0000 H   0  0  0  0  0  0  0  0  0  0  0  0
    3.7144    1.3640    0.0000 H   0  0  0  0  0  0  0  0  0  0  0  0
    7.7228    1.9994    0.0000 H   0  0  0  0  0  0  0  0  0  0  0  0
    1.4631   -1.8177    0.0000 H   0  0  0  0  0  0  0  0  0  0  0  0
    5.8608    4.0746    0.0000 H   0  0  0  0  0  0  0  0  0  0  0  0
    2.3291    1.3023    0.0000 H   0  0  0  0  0  0  0  0  0  0  0  0
    3.4030    1.3023    0.0000 H   0  0  0  0  0  0  0  0  0  0  0  0
  1 21  1  0  0  0  0
  2  3  1  0  0  0  0
  2  9  1  0  0  0  0
  2 12  1  0  0  0  0
  3 11  2  0  0  0  0
  4 12  2  0  0  0  0
  4 22  1  0  0  0  0
  5  8  1  0  0  0  0
  5 18  1  0  0  0  0
  5 33  1  0  0  0  0
  6 16  1  0  0  0  0
  6 22  2  0  0  0  0
  7 16  1  0  0  0  0
  7 36  1  0  0  0  0
  7 37  1  0  0  0  0
  8 23  2  0  0  0  0
  9 14  1  0  0  0  0
  9 15  1  0  0  0  0
  9 24  1  0  0  0  0
 10 11  1  0  0  0  0
 10 12  1  0  0  0  0
 10 16  2  0  0  0  0
 11 13  1  0  0  0  0
 13 17  2  0  0  0  0
 13 19  1  0  0  0  0
 14 25  1  0  0  0  0
 14 26  1  0  0  0  0
 14 27  1  0  0  0  0
 15 28  1  0  0  0  0
 15 29  1  0  0  0  0
 15 30  1  0  0  0  0
 17 18  1  0  0  0  0
 17 31  1  0  0  0  0
 18 20  2  0  0  0  0
 19 21  2  0  0  0  0
 19 32  1  0  0  0  0
 20 21  1  0  0  0  0
 20 23  1  0  0  0  0
 22 34  1  0  0  0  0
 23 35  1  0  0  0  0
M  END
> <PUBCHEM_COMPOUND_CID>
24905244

> <PUBCHEM_COMPOUND_CANONICALIZED>
1

> <PUBCHEM_CACTVS_COMPLEXITY>
436

> <PUBCHEM_CACTVS_HBOND_ACCEPTOR>
6

> <PUBCHEM_CACTVS_HBOND_DONOR>
2

> <PUBCHEM_CACTVS_ROTATABLE_BOND>
2

> <PUBCHEM_CACTVS_SUBSKEYS>
AAADccBzgQAAAAAAAAAAAAAAAAAAAWLAAAA8QAAAAAAAAFgB/gAAHQAYAAAADCjBHww/8P5rEACiAzZnZACShCsxgqAV+SA4ZJiIKKLA2dGEpAhomALIyCcQgMAOQAAAQAACAACAAACAAAQAAAAAAAAAAA==

> <PUBCHEM_IUPAC_OPENEYE_NAME>
3-(4-fluoro-1H-indazol-6-yl)-1-isopropyl-pyrazolo[3,4-d]pyrimidin-4-amine

> <PUBCHEM_IUPAC_CAS_NAME>
3-(4-fluoro-1H-indazol-6-yl)-1-propan-2-yl-4-pyrazolo[3,4-d]pyrimidinamine

> <PUBCHEM_IUPAC_NAME_MARKUP>
3-(4-fluoro-1<I>H</I>-indazol-6-yl)-1-propan-2-ylpyrazolo[3,4-d]pyrimidin-4-amine

> <PUBCHEM_IUPAC_NAME>
3-(4-fluoro-1H-indazol-6-yl)-1-propan-2-ylpyrazolo[3,4-d]pyrimidin-4-amine

> <PUBCHEM_IUPAC_SYSTEMATIC_NAME>
3-(4-fluoranyl-1H-indazol-6-yl)-1-propan-2-yl-pyrazolo[3,4-d]pyrimidin-4-amine

> <PUBCHEM_IUPAC_TRADITIONAL_NAME>
[3-(4-fluoro-1H-indazol-6-yl)-1-isopropyl-pyrazolo[3,4-d]pyrimidin-4-yl]amine

> <PUBCHEM_IUPAC_INCHI>
InChI=1S/C15H14FN7/c1-7(2)23-15-12(14(17)18-6-19-15)13(22-23)8-3-10(16)9-5-20-21-11(9)4-8/h3-7H,1-2H3,(H,20,21)(H2,17,18,19)

> <PUBCHEM_IUPAC_INCHIKEY>
VVLOLXBDTFEURK-UHFFFAOYSA-N

> <PUBCHEM_XLOGP3_AA>
1.9

> <PUBCHEM_EXACT_MASS>
311.12947164

> <PUBCHEM_MOLECULAR_FORMULA>
C15H14FN7

> <PUBCHEM_MOLECULAR_WEIGHT>
311.32

> <PUBCHEM_SMILES>
CC(C)N1C2=NC=NC(=C2C(=N1)C3=CC4=C(C=NN4)C(=C3)F)N

> <PUBCHEM_OPENEYE_CAN_SMILES>
CC(C)N1C2=NC=NC(=C2C(=N1)C3=CC4=C(C=NN4)C(=C3)F)N

> <PUBCHEM_OPENEYE_ISO_SMILES>
CC(C)N1C2=NC=NC(=C2C(=N1)C3=CC4=C(C=NN4)C(=C3)F)N

> <PUBCHEM_CACTVS_TPSA>
98.3

> <PUBCHEM_MONOISOTOPIC_WEIGHT>
311.12947164

> <PUBCHEM_TOTAL_CHARGE>
0

> <PUBCHEM_HEAVY_ATOM_COUNT>
23

> <PUBCHEM_ATOM_DEF_STEREO_COUNT>
0

> <PUBCHEM_ATOM_UDEF_STEREO_COUNT>
0

> <PUBCHEM_BOND_DEF_STEREO_COUNT>
0

> <PUBCHEM_BOND_UDEF_STEREO_COUNT>
0

> <PUBCHEM_ISOTOPIC_ATOM_COUNT>
0

> <PUBCHEM_COMPONENT_COUNT>
1

> <PUBCHEM_CACTVS_TAUTO_COUNT>
-1

> <PUBCHEM_COORDINATE_TYPE>
1
5
255

> <PUBCHEM_BONDANNOTATIONS>
10  11  8
10  12  8
10  16  8
13  17  8
13  19  8
17  18  8
18  20  8
19  21  8
2  12  8
2  3  8
20  21  8
20  23  8
3  11  8
4  12  8
4  22  8
5  18  8
5  8  8
6  16  8
6  22  8
8  23  8

$$$$
