49830417
  -OEChem-03202502012D

 77 83  0     0  0  0  0  0  0999 V2000
    8.9851   -2.3114    0.0000 S   0  0  0  0  0  0  0  0  0  0  0  0
    6.5719    6.4949    0.0000 O   0  0  0  0  0  0  0  0  0  0  0  0
    5.0000   -4.1048    0.0000 O   0  0  0  0  0  0  0  0  0  0  0  0
    5.2337    5.0086    0.0000 N   0  0  0  0  0  0  0  0  0  0  0  0
    8.0388   -1.0067    0.0000 N   0  0  0  0  0  0  0  0  0  0  0  0
    7.0878   -2.3157    0.0000 N   0  0  0  0  0  0  0  0  0  0  0  0
    4.5135    1.6202    0.0000 N   0  0  0  0  0  0  0  0  0  0  0  0
    2.5000   -1.5067    0.0000 N   0  0  0  0  0  0  0  0  0  0  0  0
    5.8006    0.4613    0.0000 N   0  0  0  0  0  0  0  0  0  0  0  0
    3.5000   -3.2388    0.0000 N   0  0  0  0  0  0  0  0  0  0  0  0
    6.1607    2.1555    0.0000 N   0  0  0  0  0  0  0  0  0  0  0  0
    4.9247    5.9597    0.0000 C   0  0  0  0  0  0  0  0  0  0  0  0
    6.2118    4.8007    0.0000 C   0  0  0  0  0  0  0  0  0  0  0  0
    5.5938    6.7029    0.0000 C   0  0  0  0  0  0  0  0  0  0  0  0
    6.8810    5.5439    0.0000 C   0  0  0  0  0  0  0  0  0  0  0  0
    4.5646    4.2655    0.0000 C   0  0  0  0  0  0  0  0  0  0  0  0
    4.8736    3.3144    0.0000 C   0  0  0  0  0  0  0  0  0  0  0  0
    7.0878   -0.6977    0.0000 C   0  0  0  0  0  0  0  0  0  0  0  0
    6.5000   -1.5067    0.0000 C   0  0  0  0  0  0  0  0  0  0  0  0
    3.5864    4.4734    0.0000 C   0  0  0  0  0  0  0  0  0  0  0  0
    5.5000   -1.5067    0.0000 C   0  0  0  0  0  0  0  0  0  0  0  0
    4.2044    2.5713    0.0000 C   0  0  0  0  0  0  0  0  0  0  0  0
    8.0388   -2.0067    0.0000 C   0  0  0  0  0  0  0  0  0  0  0  0
    6.7788    0.2534    0.0000 C   0  0  0  0  0  0  0  0  0  0  0  0
    3.5000   -1.5067    0.0000 C   0  0  0  0  0  0  0  0  0  0  0  0
    4.0000   -2.3727    0.0000 C   0  0  0  0  0  0  0  0  0  0  0  0
    5.0000   -2.3727    0.0000 C   0  0  0  0  0  0  0  0  0  0  0  0
    2.9173    3.7303    0.0000 C   0  0  0  0  0  0  0  0  0  0  0  0
    3.2263    2.7792    0.0000 C   0  0  0  0  0  0  0  0  0  0  0  0
    5.0000   -0.6407    0.0000 C   0  0  0  0  0  0  0  0  0  0  0  0
    4.0000   -0.6407    0.0000 C   0  0  0  0  0  0  0  0  0  0  0  0
    8.9851   -0.7020    0.0000 C   0  0  0  0  0  0  0  0  0  0  0  0
    5.4916    1.4123    0.0000 C   0  0  0  0  0  0  0  0  0  0  0  0
    7.4479    0.9965    0.0000 C   0  0  0  0  0  0  0  0  0  0  0  0
    9.5687   -1.5067    0.0000 C   0  0  0  0  0  0  0  0  0  0  0  0
    2.0000   -0.6407    0.0000 C   0  0  0  0  0  0  0  0  0  0  0  0
    2.0000   -2.3727    0.0000 C   0  0  0  0  0  0  0  0  0  0  0  0
    7.1389    1.9476    0.0000 C   0  0  0  0  0  0  0  0  0  0  0  0
    4.0000   -4.1048    0.0000 C   0  0  0  0  0  0  0  0  0  0  0  0
    3.5000   -4.9708    0.0000 C   0  0  0  0  0  0  0  0  0  0  0  0
    2.5000   -4.9708    0.0000 C   0  0  0  0  0  0  0  0  0  0  0  0
    4.0000   -5.8368    0.0000 C   0  0  0  0  0  0  0  0  0  0  0  0
    2.0000   -5.8368    0.0000 C   0  0  0  0  0  0  0  0  0  0  0  0
    3.5000   -6.7029    0.0000 C   0  0  0  0  0  0  0  0  0  0  0  0
    2.5000   -6.7029    0.0000 C   0  0  0  0  0  0  0  0  0  0  0  0
    4.5430    6.4483    0.0000 H   0  0  0  0  0  0  0  0  0  0  0  0
    4.3772    5.6686    0.0000 H   0  0  0  0  0  0  0  0  0  0  0  0
    5.9796    4.2259    0.0000 H   0  0  0  0  0  0  0  0  0  0  0  0
    6.7376    4.4722    0.0000 H   0  0  0  0  0  0  0  0  0  0  0  0
    5.8261    7.2777    0.0000 H   0  0  0  0  0  0  0  0  0  0  0  0
    5.0680    7.0314    0.0000 H   0  0  0  0  0  0  0  0  0  0  0  0
    7.2627    5.0553    0.0000 H   0  0  0  0  0  0  0  0  0  0  0  0
    7.4284    5.8350    0.0000 H   0  0  0  0  0  0  0  0  0  0  0  0
    5.4800    3.1856    0.0000 H   0  0  0  0  0  0  0  0  0  0  0  0
    3.3948    5.0631    0.0000 H   0  0  0  0  0  0  0  0  0  0  0  0
    5.3100   -2.9097    0.0000 H   0  0  0  0  0  0  0  0  0  0  0  0
    2.3108    3.8592    0.0000 H   0  0  0  0  0  0  0  0  0  0  0  0
    2.8114    2.3185    0.0000 H   0  0  0  0  0  0  0  0  0  0  0  0
    5.3100   -0.1037    0.0000 H   0  0  0  0  0  0  0  0  0  0  0  0
    4.0986    1.1595    0.0000 H   0  0  0  0  0  0  0  0  0  0  0  0
    3.6900   -0.1037    0.0000 H   0  0  0  0  0  0  0  0  0  0  0  0
    9.1777   -0.1126    0.0000 H   0  0  0  0  0  0  0  0  0  0  0  0
    8.0544    0.8676    0.0000 H   0  0  0  0  0  0  0  0  0  0  0  0
   10.1887   -1.5067    0.0000 H   0  0  0  0  0  0  0  0  0  0  0  0
    2.8800   -3.2388    0.0000 H   0  0  0  0  0  0  0  0  0  0  0  0
    2.5369   -0.3307    0.0000 H   0  0  0  0  0  0  0  0  0  0  0  0
    1.6900   -0.1037    0.0000 H   0  0  0  0  0  0  0  0  0  0  0  0
    1.4631   -0.9507    0.0000 H   0  0  0  0  0  0  0  0  0  0  0  0
    1.4631   -2.0627    0.0000 H   0  0  0  0  0  0  0  0  0  0  0  0
    1.6900   -2.9097    0.0000 H   0  0  0  0  0  0  0  0  0  0  0  0
    2.5369   -2.6827    0.0000 H   0  0  0  0  0  0  0  0  0  0  0  0
    7.5537    2.4083    0.0000 H   0  0  0  0  0  0  0  0  0  0  0  0
    2.1900   -4.4339    0.0000 H   0  0  0  0  0  0  0  0  0  0  0  0
    4.6200   -5.8368    0.0000 H   0  0  0  0  0  0  0  0  0  0  0  0
    1.3800   -5.8368    0.0000 H   0  0  0  0  0  0  0  0  0  0  0  0
    3.8100   -7.2398    0.0000 H   0  0  0  0  0  0  0  0  0  0  0  0
    2.1900   -7.2398    0.0000 H   0  0  0  0  0  0  0  0  0  0  0  0
  1 23  1  0  0  0  0
  1 35  1  0  0  0  0
  2 14  1  0  0  0  0
  2 15  1  0  0  0  0
  3 39  2  0  0  0  0
  4 12  1  0  0  0  0
  4 13  1  0  0  0  0
  4 16  1  0  0  0  0
  5 18  1  0  0  0  0
  5 23  1  0  0  0  0
  5 32  1  0  0  0  0
  6 19  1  0  0  0  0
  6 23  2  0  0  0  0
  7 22  1  0  0  0  0
  7 33  1  0  0  0  0
  7 60  1  0  0  0  0
  8 25  1  0  0  0  0
  8 36  1  0  0  0  0
  8 37  1  0  0  0  0
  9 24  2  0  0  0  0
  9 33  1  0  0  0  0
 10 26  1  0  0  0  0
 10 39  1  0  0  0  0
 10 65  1  0  0  0  0
 11 33  2  0  0  0  0
 11 38  1  0  0  0  0
 12 14  1  0  0  0  0
 12 46  1  0  0  0  0
 12 47  1  0  0  0  0
 13 15  1  0  0  0  0
 13 48  1  0  0  0  0
 13 49  1  0  0  0  0
 14 50  1  0  0  0  0
 14 51  1  0  0  0  0
 15 52  1  0  0  0  0
 15 53  1  0  0  0  0
 16 17  1  0  0  0  0
 16 20  2  0  0  0  0
 17 22  2  0  0  0  0
 17 54  1  0  0  0  0
 18 19  2  0  0  0  0
 18 24  1  0  0  0  0
 19 21  1  0  0  0  0
 20 28  1  0  0  0  0
 20 55  1  0  0  0  0
 21 27  2  0  0  0  0
 21 30  1  0  0  0  0
 22 29  1  0  0  0  0
 24 34  1  0  0  0  0
 25 26  2  0  0  0  0
 25 31  1  0  0  0  0
 26 27  1  0  0  0  0
 27 56  1  0  0  0  0
 28 29  2  0  0  0  0
 28 57  1  0  0  0  0
 29 58  1  0  0  0  0
 30 31  2  0  0  0  0
 30 59  1  0  0  0  0
 31 61  1  0  0  0  0
 32 35  2  0  0  0  0
 32 62  1  0  0  0  0
 34 38  2  0  0  0  0
 34 63  1  0  0  0  0
 35 64  1  0  0  0  0
 36 66  1  0  0  0  0
 36 67  1  0  0  0  0
 36 68  1  0  0  0  0
 37 69  1  0  0  0  0
 37 70  1  0  0  0  0
 37 71  1  0  0  0  0
 38 72  1  0  0  0  0
 39 40  1  0  0  0  0
 40 41  2  0  0  0  0
 40 42  1  0  0  0  0
 41 43  1  0  0  0  0
 41 73  1  0  0  0  0
 42 44  2  0  0  0  0
 42 74  1  0  0  0  0
 43 45  2  0  0  0  0
 43 75  1  0  0  0  0
 44 45  1  0  0  0  0
 44 76  1  0  0  0  0
 45 77  1  0  0  0  0
M  END
> <PUBCHEM_COMPOUND_CID>
49830417

> <PUBCHEM_COMPOUND_CANONICALIZED>
1

> <PUBCHEM_CACTVS_COMPLEXITY>
964

> <PUBCHEM_CACTVS_HBOND_ACCEPTOR>
9

> <PUBCHEM_CACTVS_HBOND_DONOR>
2

> <PUBCHEM_CACTVS_ROTATABLE_BOND>
8

> <PUBCHEM_CACTVS_SUBSKEYS>
AAADcfB/8ABAAAAAAAAAAAAAAAAAAWLAAAA8eMECAAAWAAAB/AAAHgQQAAAADAjl3ga/0ZfMHAisAzV3dACC8K11GrhJ2C04dNiKaPLA3dGXJQholALYyacYiMCOCAAAQAQAACAQAACACAAAQAAAAAAAAA==

> <PUBCHEM_IUPAC_OPENEYE_NAME>
N-[2-(dimethylamino)-5-[5-[2-(3-morpholinoanilino)pyrimidin-4-yl]imidazo[2,1-b]thiazol-6-yl]phenyl]benzamide

> <PUBCHEM_IUPAC_CAS_NAME>
N-[2-(dimethylamino)-5-[5-[2-[3-(4-morpholinyl)anilino]-4-pyrimidinyl]-6-imidazo[2,1-b]thiazolyl]phenyl]benzamide

> <PUBCHEM_IUPAC_NAME_MARKUP>
<I>N</I>-[2-(dimethylamino)-5-[5-[2-(3-morpholin-4-ylanilino)pyrimidin-4-yl]imidazo[2,1-b][1,3]thiazol-6-yl]phenyl]benzamide

> <PUBCHEM_IUPAC_NAME>
N-[2-(dimethylamino)-5-[5-[2-(3-morpholin-4-ylanilino)pyrimidin-4-yl]imidazo[2,1-b][1,3]thiazol-6-yl]phenyl]benzamide

> <PUBCHEM_IUPAC_SYSTEMATIC_NAME>
N-[2-(dimethylamino)-5-[5-[2-[(3-morpholin-4-ylphenyl)amino]pyrimidin-4-yl]imidazo[2,1-b][1,3]thiazol-6-yl]phenyl]benzamide

> <PUBCHEM_IUPAC_TRADITIONAL_NAME>
N-[2-(dimethylamino)-5-[5-[2-(3-morpholinoanilino)pyrimidin-4-yl]imidazo[2,1-b]thiazol-6-yl]phenyl]benzamide

> <PUBCHEM_IUPAC_INCHI>
InChI=1S/C34H32N8O2S/c1-40(2)29-12-11-24(21-28(29)37-32(43)23-7-4-3-5-8-23)30-31(42-17-20-45-34(42)39-30)27-13-14-35-33(38-27)36-25-9-6-10-26(22-25)41-15-18-44-19-16-41/h3-14,17,20-22H,15-16,18-19H2,1-2H3,(H,37,43)(H,35,36,38)

> <PUBCHEM_IUPAC_INCHIKEY>
IBPSHHSPUPWXHN-UHFFFAOYSA-N

> <PUBCHEM_XLOGP3_AA>
6.1

> <PUBCHEM_EXACT_MASS>
616.23689347

> <PUBCHEM_MOLECULAR_FORMULA>
C34H32N8O2S

> <PUBCHEM_MOLECULAR_WEIGHT>
616.7

> <PUBCHEM_SMILES>
CN(C)C1=C(C=C(C=C1)C2=C(N3C=CSC3=N2)C4=NC(=NC=C4)NC5=CC(=CC=C5)N6CCOCC6)NC(=O)C7=CC=CC=C7

> <PUBCHEM_OPENEYE_CAN_SMILES>
CN(C)C1=C(C=C(C=C1)C2=C(N3C=CSC3=N2)C4=NC(=NC=C4)NC5=CC(=CC=C5)N6CCOCC6)NC(=O)C7=CC=CC=C7

> <PUBCHEM_OPENEYE_ISO_SMILES>
CN(C)C1=C(C=C(C=C1)C2=C(N3C=CSC3=N2)C4=NC(=NC=C4)NC5=CC(=CC=C5)N6CCOCC6)NC(=O)C7=CC=CC=C7

> <PUBCHEM_CACTVS_TPSA>
128

> <PUBCHEM_MONOISOTOPIC_WEIGHT>
616.23689347

> <PUBCHEM_TOTAL_CHARGE>
0

> <PUBCHEM_HEAVY_ATOM_COUNT>
45

> <PUBCHEM_ATOM_DEF_STEREO_COUNT>
0

> <PUBCHEM_ATOM_UDEF_STEREO_COUNT>
0

> <PUBCHEM_BOND_DEF_STEREO_COUNT>
0

> <PUBCHEM_BOND_UDEF_STEREO_COUNT>
0

> <PUBCHEM_ISOTOPIC_ATOM_COUNT>
0

> <PUBCHEM_COMPONENT_COUNT>
1

> <PUBCHEM_CACTVS_TAUTO_COUNT>
-1

> <PUBCHEM_COORDINATE_TYPE>
1
5
255

> <PUBCHEM_BONDANNOTATIONS>
1  23  8
1  35  8
11  33  8
11  38  8
16  17  8
16  20  8
17  22  8
18  19  8
20  28  8
21  27  8
21  30  8
22  29  8
24  34  8
25  26  8
25  31  8
26  27  8
28  29  8
30  31  8
32  35  8
34  38  8
40  41  8
40  42  8
41  43  8
42  44  8
43  45  8
44  45  8
5  18  8
5  23  8
5  32  8
6  19  8
6  23  8
9  24  8
9  33  8

$$$$
