5330437
  -OEChem-03202500432D

 64 68  0     0  0  0  0  0  0999 V2000
    8.9759    4.7609    0.0000 Cl  0  0  0  0  0  0  0  0  0  0  0  0
   12.4397    4.8010    0.0000 Cl  0  0  0  0  0  0  0  0  0  0  0  0
    2.8718   -4.8010    0.0000 O   0  0  0  0  0  0  0  0  0  0  0  0
    3.7205   -0.2977    0.0000 O   0  0  0  0  0  0  0  0  0  0  0  0
    3.7205    1.7506    0.0000 O   0  0  0  0  0  0  0  0  0  0  0  0
   12.4629    2.8011    0.0000 O   0  0  0  0  0  0  0  0  0  0  0  0
    2.8641   -2.8010    0.0000 N   0  0  0  0  0  0  0  0  0  0  0  0
    8.9990    2.7611    0.0000 N   0  0  0  0  0  0  0  0  0  0  0  0
    9.0106   -0.3082    0.0000 N   0  0  0  0  0  0  0  0  0  0  0  0
   11.6448    2.2540    0.0000 N   0  0  0  0  0  0  0  0  0  0  0  0
    2.0000   -3.3043    0.0000 C   0  0  0  0  0  0  0  0  0  0  0  0
    3.7320   -3.2977    0.0000 C   0  0  0  0  0  0  0  0  0  0  0  0
    2.8602   -1.8010    0.0000 C   0  0  0  0  0  0  0  0  0  0  0  0
    2.0038   -4.3043    0.0000 C   0  0  0  0  0  0  0  0  0  0  0  0
    3.7359   -4.2976    0.0000 C   0  0  0  0  0  0  0  0  0  0  0  0
    3.7243   -1.2977    0.0000 C   0  0  0  0  0  0  0  0  0  0  0  0
    6.3846    0.2265    0.0000 C   0  0  0  0  0  0  0  0  0  0  0  0
    6.3846    1.2265    0.0000 C   0  0  0  0  0  0  0  0  0  0  0  0
    4.5846    0.2057    0.0000 C   0  0  0  0  0  0  0  0  0  0  0  0
    8.1166    1.2265    0.0000 C   0  0  0  0  0  0  0  0  0  0  0  0
    5.4906   -0.3082    0.0000 C   0  0  0  0  0  0  0  0  0  0  0  0
    7.2506    1.7265    0.0000 C   0  0  0  0  0  0  0  0  0  0  0  0
    8.1166    0.2265    0.0000 C   0  0  0  0  0  0  0  0  0  0  0  0
    4.5846    1.2473    0.0000 C   0  0  0  0  0  0  0  0  0  0  0  0
    7.2506   -0.2735    0.0000 C   0  0  0  0  0  0  0  0  0  0  0  0
    5.4906    1.7611    0.0000 C   0  0  0  0  0  0  0  0  0  0  0  0
    9.0106    1.7611    0.0000 C   0  0  0  0  0  0  0  0  0  0  0  0
    9.9166    1.2473    0.0000 C   0  0  0  0  0  0  0  0  0  0  0  0
    9.9166    0.2057    0.0000 C   0  0  0  0  0  0  0  0  0  0  0  0
    9.8592    3.2710    0.0000 C   0  0  0  0  0  0  0  0  0  0  0  0
   10.7309    2.7811    0.0000 C   0  0  0  0  0  0  0  0  0  0  0  0
    9.8476    4.2710    0.0000 C   0  0  0  0  0  0  0  0  0  0  0  0
    3.7243    2.7506    0.0000 C   0  0  0  0  0  0  0  0  0  0  0  0
   10.7807    1.7506    0.0000 C   0  0  0  0  0  0  0  0  0  0  0  0
   11.5911    3.2911    0.0000 C   0  0  0  0  0  0  0  0  0  0  0  0
   10.7078    4.7810    0.0000 C   0  0  0  0  0  0  0  0  0  0  0  0
   11.5796    4.2910    0.0000 C   0  0  0  0  0  0  0  0  0  0  0  0
   12.4744    1.8012    0.0000 C   0  0  0  0  0  0  0  0  0  0  0  0
    1.7857   -2.7226    0.0000 H   0  0  0  0  0  0  0  0  0  0  0  0
    1.3898   -3.4144    0.0000 H   0  0  0  0  0  0  0  0  0  0  0  0
    4.3430   -3.4030    0.0000 H   0  0  0  0  0  0  0  0  0  0  0  0
    3.9418   -2.7142    0.0000 H   0  0  0  0  0  0  0  0  0  0  0  0
    2.6459   -1.2192    0.0000 H   0  0  0  0  0  0  0  0  0  0  0  0
    2.2501   -1.9110    0.0000 H   0  0  0  0  0  0  0  0  0  0  0  0
    1.3929   -4.1990    0.0000 H   0  0  0  0  0  0  0  0  0  0  0  0
    1.7940   -4.8877    0.0000 H   0  0  0  0  0  0  0  0  0  0  0  0
    3.9502   -4.8794    0.0000 H   0  0  0  0  0  0  0  0  0  0  0  0
    4.3460   -4.1876    0.0000 H   0  0  0  0  0  0  0  0  0  0  0  0
    3.9386   -1.8795    0.0000 H   0  0  0  0  0  0  0  0  0  0  0  0
    4.3345   -1.1877    0.0000 H   0  0  0  0  0  0  0  0  0  0  0  0
    5.4978   -0.9282    0.0000 H   0  0  0  0  0  0  0  0  0  0  0  0
    7.2506    2.3465    0.0000 H   0  0  0  0  0  0  0  0  0  0  0  0
    7.2506   -0.8935    0.0000 H   0  0  0  0  0  0  0  0  0  0  0  0
    5.4978    2.3811    0.0000 H   0  0  0  0  0  0  0  0  0  0  0  0
    8.4585    3.0648    0.0000 H   0  0  0  0  0  0  0  0  0  0  0  0
   10.4524   -0.1064    0.0000 H   0  0  0  0  0  0  0  0  0  0  0  0
   10.7381    2.1611    0.0000 H   0  0  0  0  0  0  0  0  0  0  0  0
    4.3443    2.7482    0.0000 H   0  0  0  0  0  0  0  0  0  0  0  0
    3.7267    3.3706    0.0000 H   0  0  0  0  0  0  0  0  0  0  0  0
    3.1043    2.7530    0.0000 H   0  0  0  0  0  0  0  0  0  0  0  0
   10.7006    5.4009    0.0000 H   0  0  0  0  0  0  0  0  0  0  0  0
   11.8545    1.7940    0.0000 H   0  0  0  0  0  0  0  0  0  0  0  0
   12.4816    1.1812    0.0000 H   0  0  0  0  0  0  0  0  0  0  0  0
   13.0944    1.8084    0.0000 H   0  0  0  0  0  0  0  0  0  0  0  0
  1 32  1  0  0  0  0
  2 37  1  0  0  0  0
  3 14  1  0  0  0  0
  3 15  1  0  0  0  0
  4 16  1  0  0  0  0
  4 19  1  0  0  0  0
  5 24  1  0  0  0  0
  5 33  1  0  0  0  0
  6 35  1  0  0  0  0
  6 38  1  0  0  0  0
  7 11  1  0  0  0  0
  7 12  1  0  0  0  0
  7 13  1  0  0  0  0
  8 27  1  0  0  0  0
  8 30  1  0  0  0  0
  8 55  1  0  0  0  0
  9 23  2  0  0  0  0
  9 29  1  0  0  0  0
 10 34  3  0  0  0  0
 11 14  1  0  0  0  0
 11 39  1  0  0  0  0
 11 40  1  0  0  0  0
 12 15  1  0  0  0  0
 12 41  1  0  0  0  0
 12 42  1  0  0  0  0
 13 16  1  0  0  0  0
 13 43  1  0  0  0  0
 13 44  1  0  0  0  0
 14 45  1  0  0  0  0
 14 46  1  0  0  0  0
 15 47  1  0  0  0  0
 15 48  1  0  0  0  0
 16 49  1  0  0  0  0
 16 50  1  0  0  0  0
 17 18  1  0  0  0  0
 17 21  1  0  0  0  0
 17 25  2  0  0  0  0
 18 22  2  0  0  0  0
 18 26  1  0  0  0  0
 19 21  2  0  0  0  0
 19 24  1  0  0  0  0
 20 22  1  0  0  0  0
 20 23  1  0  0  0  0
 20 27  2  0  0  0  0
 21 51  1  0  0  0  0
 22 52  1  0  0  0  0
 23 25  1  0  0  0  0
 24 26  2  0  0  0  0
 25 53  1  0  0  0  0
 26 54  1  0  0  0  0
 27 28  1  0  0  0  0
 28 29  2  0  0  0  0
 28 34  1  0  0  0  0
 29 56  1  0  0  0  0
 30 31  2  0  0  0  0
 30 32  1  0  0  0  0
 31 35  1  0  0  0  0
 31 57  1  0  0  0  0
 32 36  2  0  0  0  0
 33 58  1  0  0  0  0
 33 59  1  0  0  0  0
 33 60  1  0  0  0  0
 35 37  2  0  0  0  0
 36 37  1  0  0  0  0
 36 61  1  0  0  0  0
 38 62  1  0  0  0  0
 38 63  1  0  0  0  0
 38 64  1  0  0  0  0
M  END
> <PUBCHEM_COMPOUND_CID>
5330437

> <PUBCHEM_COMPOUND_CANONICALIZED>
1

> <PUBCHEM_CACTVS_COMPLEXITY>
811

> <PUBCHEM_CACTVS_HBOND_ACCEPTOR>
8

> <PUBCHEM_CACTVS_HBOND_DONOR>
1

> <PUBCHEM_CACTVS_ROTATABLE_BOND>
8

> <PUBCHEM_CACTVS_SUBSKEYS>
AAADceB7uAAGAAAAAAAAAAAAAAAAAAAAAAA8eMECAAAAAADx9AAAHgIQAAAADA7hniY+xvPIFACwBzRnRACiiCAxJ2AA2CA+75gPpuPF89vHPCrm0Bna6A+Q0PMO6CBDQgCSSBDQQIaEASSQIAAAAAAAAA==

> <PUBCHEM_IUPAC_OPENEYE_NAME>
4-(2,4-dichloro-5-methoxy-anilino)-7-methoxy-8-(2-morpholinoethoxy)benzo[g]quinoline-3-carbonitrile

> <PUBCHEM_IUPAC_CAS_NAME>
4-(2,4-dichloro-5-methoxyanilino)-7-methoxy-8-[2-(4-morpholinyl)ethoxy]-3-benzo[g]quinolinecarbonitrile

> <PUBCHEM_IUPAC_NAME_MARKUP>
4-(2,4-dichloro-5-methoxyanilino)-7-methoxy-8-(2-morpholin-4-ylethoxy)benzo[g]quinoline-3-carbonitrile

> <PUBCHEM_IUPAC_NAME>
4-(2,4-dichloro-5-methoxyanilino)-7-methoxy-8-(2-morpholin-4-ylethoxy)benzo[g]quinoline-3-carbonitrile

> <PUBCHEM_IUPAC_SYSTEMATIC_NAME>
4-[[2,4-bis(chloranyl)-5-methoxy-phenyl]amino]-7-methoxy-8-(2-morpholin-4-ylethoxy)benzo[g]quinoline-3-carbonitrile

> <PUBCHEM_IUPAC_TRADITIONAL_NAME>
4-(2,4-dichloro-5-methoxy-anilino)-7-methoxy-8-(2-morpholinoethoxy)benzo[g]quinoline-3-carbonitrile

> <PUBCHEM_IUPAC_INCHI>
InChI=1S/C28H26Cl2N4O4/c1-35-25-14-24(21(29)13-22(25)30)33-28-19(15-31)16-32-23-10-18-12-27(26(36-2)11-17(18)9-20(23)28)38-8-5-34-3-6-37-7-4-34/h9-14,16H,3-8H2,1-2H3,(H,32,33)

> <PUBCHEM_IUPAC_INCHIKEY>
UNZHPVUBBKLAJR-UHFFFAOYSA-N

> <PUBCHEM_XLOGP3_AA>
6.1

> <PUBCHEM_EXACT_MASS>
552.1331107

> <PUBCHEM_MOLECULAR_FORMULA>
C28H26Cl2N4O4

> <PUBCHEM_MOLECULAR_WEIGHT>
553.4

> <PUBCHEM_SMILES>
COC1=CC2=CC3=C(C(=CN=C3C=C2C=C1OCCN4CCOCC4)C#N)NC5=CC(=C(C=C5Cl)Cl)OC

> <PUBCHEM_OPENEYE_CAN_SMILES>
COC1=CC2=CC3=C(C(=CN=C3C=C2C=C1OCCN4CCOCC4)C#N)NC5=CC(=C(C=C5Cl)Cl)OC

> <PUBCHEM_OPENEYE_ISO_SMILES>
COC1=CC2=CC3=C(C(=CN=C3C=C2C=C1OCCN4CCOCC4)C#N)NC5=CC(=C(C=C5Cl)Cl)OC

> <PUBCHEM_CACTVS_TPSA>
88.9

> <PUBCHEM_MONOISOTOPIC_WEIGHT>
552.1331107

> <PUBCHEM_TOTAL_CHARGE>
0

> <PUBCHEM_HEAVY_ATOM_COUNT>
38

> <PUBCHEM_ATOM_DEF_STEREO_COUNT>
0

> <PUBCHEM_ATOM_UDEF_STEREO_COUNT>
0

> <PUBCHEM_BOND_DEF_STEREO_COUNT>
0

> <PUBCHEM_BOND_UDEF_STEREO_COUNT>
0

> <PUBCHEM_ISOTOPIC_ATOM_COUNT>
0

> <PUBCHEM_COMPONENT_COUNT>
1

> <PUBCHEM_CACTVS_TAUTO_COUNT>
-1

> <PUBCHEM_COORDINATE_TYPE>
1
5
255

> <PUBCHEM_BONDANNOTATIONS>
17  18  8
17  21  8
17  25  8
18  22  8
18  26  8
19  21  8
19  24  8
20  22  8
20  23  8
20  27  8
23  25  8
24  26  8
27  28  8
28  29  8
30  31  8
30  32  8
31  35  8
32  36  8
35  37  8
36  37  8
9  23  8
9  29  8

$$$$
