49830427
  -OEChem-03202504282D

 40 42  0     0  0  0  0  0  0999 V2000
    7.0010    5.2500    0.0000 F   0  0  0  0  0  0  0  0  0  0  0  0
    6.0010    6.2500    0.0000 F   0  0  0  0  0  0  0  0  0  0  0  0
    5.0010    5.2500    0.0000 F   0  0  0  0  0  0  0  0  0  0  0  0
    5.1350    0.7500    0.0000 O   0  0  0  0  0  0  0  0  0  0  0  0
    3.4030   -6.2500    0.0000 O   0  0  0  0  0  0  0  0  0  0  0  0
    3.4030    0.7500    0.0000 N   0  0  0  0  0  0  0  0  0  0  0  0
    4.2690    2.2500    0.0000 N   0  0  0  0  0  0  0  0  0  0  0  0
    2.5369   -3.7500    0.0000 N   0  0  0  0  0  0  0  0  0  0  0  0
    2.5369   -4.7500    0.0000 N   0  0  0  0  0  0  0  0  0  0  0  0
    3.4030   -2.2500    0.0000 C   0  0  0  0  0  0  0  0  0  0  0  0
    3.4030   -0.2500    0.0000 C   0  0  0  0  0  0  0  0  0  0  0  0
    5.1350    2.7500    0.0000 C   0  0  0  0  0  0  0  0  0  0  0  0
    6.0010    4.2500    0.0000 C   0  0  0  0  0  0  0  0  0  0  0  0
    2.5369   -1.7500    0.0000 C   0  0  0  0  0  0  0  0  0  0  0  0
    4.2690   -1.7500    0.0000 C   0  0  0  0  0  0  0  0  0  0  0  0
    2.5369   -0.7500    0.0000 C   0  0  0  0  0  0  0  0  0  0  0  0
    4.2690   -0.7500    0.0000 C   0  0  0  0  0  0  0  0  0  0  0  0
    5.1350    3.7500    0.0000 C   0  0  0  0  0  0  0  0  0  0  0  0
    3.4030   -3.2500    0.0000 C   0  0  0  0  0  0  0  0  0  0  0  0
    6.0010    2.2500    0.0000 C   0  0  0  0  0  0  0  0  0  0  0  0
    6.8671    3.7500    0.0000 C   0  0  0  0  0  0  0  0  0  0  0  0
    4.2690    1.2500    0.0000 C   0  0  0  0  0  0  0  0  0  0  0  0
    6.8671    2.7500    0.0000 C   0  0  0  0  0  0  0  0  0  0  0  0
    6.0010    5.2500    0.0000 C   0  0  0  0  0  0  0  0  0  0  0  0
    4.2690   -3.7500    0.0000 C   0  0  0  0  0  0  0  0  0  0  0  0
    4.2690   -4.7500    0.0000 C   0  0  0  0  0  0  0  0  0  0  0  0
    3.4030   -5.2500    0.0000 C   0  0  0  0  0  0  0  0  0  0  0  0
    2.0000   -2.0600    0.0000 H   0  0  0  0  0  0  0  0  0  0  0  0
    4.8059   -2.0600    0.0000 H   0  0  0  0  0  0  0  0  0  0  0  0
    2.0000   -0.4400    0.0000 H   0  0  0  0  0  0  0  0  0  0  0  0
    4.8059   -0.4400    0.0000 H   0  0  0  0  0  0  0  0  0  0  0  0
    4.5981    4.0600    0.0000 H   0  0  0  0  0  0  0  0  0  0  0  0
    2.8660    1.0600    0.0000 H   0  0  0  0  0  0  0  0  0  0  0  0
    3.7320    2.5600    0.0000 H   0  0  0  0  0  0  0  0  0  0  0  0
    6.0010    1.6300    0.0000 H   0  0  0  0  0  0  0  0  0  0  0  0
    7.4040    4.0600    0.0000 H   0  0  0  0  0  0  0  0  0  0  0  0
    7.4040    2.4400    0.0000 H   0  0  0  0  0  0  0  0  0  0  0  0
    4.8059   -3.4400    0.0000 H   0  0  0  0  0  0  0  0  0  0  0  0
    4.8059   -5.0600    0.0000 H   0  0  0  0  0  0  0  0  0  0  0  0
    2.0000   -5.0600    0.0000 H   0  0  0  0  0  0  0  0  0  0  0  0
  1 24  1  0  0  0  0
  2 24  1  0  0  0  0
  3 24  1  0  0  0  0
  4 22  2  0  0  0  0
  5 27  2  0  0  0  0
  6 11  1  0  0  0  0
  6 22  1  0  0  0  0
  6 33  1  0  0  0  0
  7 12  1  0  0  0  0
  7 22  1  0  0  0  0
  7 34  1  0  0  0  0
  8  9  1  0  0  0  0
  8 19  2  0  0  0  0
  9 27  1  0  0  0  0
  9 40  1  0  0  0  0
 10 14  2  0  0  0  0
 10 15  1  0  0  0  0
 10 19  1  0  0  0  0
 11 16  2  0  0  0  0
 11 17  1  0  0  0  0
 12 18  1  0  0  0  0
 12 20  2  0  0  0  0
 13 18  2  0  0  0  0
 13 21  1  0  0  0  0
 13 24  1  0  0  0  0
 14 16  1  0  0  0  0
 14 28  1  0  0  0  0
 15 17  2  0  0  0  0
 15 29  1  0  0  0  0
 16 30  1  0  0  0  0
 17 31  1  0  0  0  0
 18 32  1  0  0  0  0
 19 25  1  0  0  0  0
 20 23  1  0  0  0  0
 20 35  1  0  0  0  0
 21 23  2  0  0  0  0
 21 36  1  0  0  0  0
 23 37  1  0  0  0  0
 25 26  2  0  0  0  0
 25 38  1  0  0  0  0
 26 27  1  0  0  0  0
 26 39  1  0  0  0  0
M  END
> <PUBCHEM_COMPOUND_CID>
49830427

> <PUBCHEM_COMPOUND_CANONICALIZED>
1

> <PUBCHEM_CACTVS_COMPLEXITY>
625

> <PUBCHEM_CACTVS_HBOND_ACCEPTOR>
6

> <PUBCHEM_CACTVS_HBOND_DONOR>
3

> <PUBCHEM_CACTVS_ROTATABLE_BOND>
3

> <PUBCHEM_CACTVS_SUBSKEYS>
AAADccB7sYAAAAAAAAAAAAAAAAAAAAAAAAAwYIAAAAAAAAABQAAAHwAYAAAADAiBmBAxwILiAACoAyVyUACSAAAhAgAaiAAwZNiIIKLAkZGEIAhonAJIyacQgIAOCAAAQAAAAAAQAACAAAAAAAAAAAAAAA==

> <PUBCHEM_IUPAC_OPENEYE_NAME>
1-[4-(6-oxo-1H-pyridazin-3-yl)phenyl]-3-[3-(trifluoromethyl)phenyl]urea

> <PUBCHEM_IUPAC_CAS_NAME>
1-[4-(6-oxo-1H-pyridazin-3-yl)phenyl]-3-[3-(trifluoromethyl)phenyl]urea

> <PUBCHEM_IUPAC_NAME_MARKUP>
1-[4-(6-oxo-1<I>H</I>-pyridazin-3-yl)phenyl]-3-[3-(trifluoromethyl)phenyl]urea

> <PUBCHEM_IUPAC_NAME>
1-[4-(6-oxo-1H-pyridazin-3-yl)phenyl]-3-[3-(trifluoromethyl)phenyl]urea

> <PUBCHEM_IUPAC_SYSTEMATIC_NAME>
1-[4-(6-oxidanylidene-1H-pyridazin-3-yl)phenyl]-3-[3-(trifluoromethyl)phenyl]urea

> <PUBCHEM_IUPAC_TRADITIONAL_NAME>
1-[4-(6-keto-1H-pyridazin-3-yl)phenyl]-3-[3-(trifluoromethyl)phenyl]urea

> <PUBCHEM_IUPAC_INCHI>
InChI=1S/C18H13F3N4O2/c19-18(20,21)12-2-1-3-14(10-12)23-17(27)22-13-6-4-11(5-7-13)15-8-9-16(26)25-24-15/h1-10H,(H,25,26)(H2,22,23,27)

> <PUBCHEM_IUPAC_INCHIKEY>
JISZKDFLHFISOW-UHFFFAOYSA-N

> <PUBCHEM_XLOGP3_AA>
2.7

> <PUBCHEM_EXACT_MASS>
374.09906016

> <PUBCHEM_MOLECULAR_FORMULA>
C18H13F3N4O2

> <PUBCHEM_MOLECULAR_WEIGHT>
374.3

> <PUBCHEM_SMILES>
C1=CC(=CC(=C1)NC(=O)NC2=CC=C(C=C2)C3=NNC(=O)C=C3)C(F)(F)F

> <PUBCHEM_OPENEYE_CAN_SMILES>
C1=CC(=CC(=C1)NC(=O)NC2=CC=C(C=C2)C3=NNC(=O)C=C3)C(F)(F)F

> <PUBCHEM_OPENEYE_ISO_SMILES>
C1=CC(=CC(=C1)NC(=O)NC2=CC=C(C=C2)C3=NNC(=O)C=C3)C(F)(F)F

> <PUBCHEM_CACTVS_TPSA>
82.6

> <PUBCHEM_MONOISOTOPIC_WEIGHT>
374.09906016

> <PUBCHEM_TOTAL_CHARGE>
0

> <PUBCHEM_HEAVY_ATOM_COUNT>
27

> <PUBCHEM_ATOM_DEF_STEREO_COUNT>
0

> <PUBCHEM_ATOM_UDEF_STEREO_COUNT>
0

> <PUBCHEM_BOND_DEF_STEREO_COUNT>
0

> <PUBCHEM_BOND_UDEF_STEREO_COUNT>
0

> <PUBCHEM_ISOTOPIC_ATOM_COUNT>
0

> <PUBCHEM_COMPONENT_COUNT>
1

> <PUBCHEM_CACTVS_TAUTO_COUNT>
-1

> <PUBCHEM_COORDINATE_TYPE>
1
5
255

> <PUBCHEM_BONDANNOTATIONS>
10  14  8
10  15  8
11  16  8
11  17  8
12  18  8
12  20  8
13  18  8
13  21  8
14  16  8
15  17  8
19  25  8
20  23  8
21  23  8
25  26  8
26  27  8
8  19  8
8  9  8
9  27  8

$$$$
