16665630
  -OEChem-03202503342D

 44 47  0     1  0  0  0  0  0999 V2000
    6.7988   -2.4260    0.0000 F   0  0  0  0  0  0  0  0  0  0  0  0
    4.2690    1.8060    0.0000 O   0  0  0  0  0  0  0  0  0  0  0  0
   11.2988    0.1721    0.0000 N   0  0  0  0  0  0  0  0  0  0  0  0
    5.2152   -1.4987    0.0000 N   0  0  0  0  0  0  0  0  0  0  0  0
    5.2152    0.1108    0.0000 N   0  0  0  0  0  0  0  0  0  0  0  0
    2.5369    1.8060    0.0000 N   0  0  0  0  0  0  0  0  0  0  0  0
    9.7988   -0.6940    0.0000 C   0  0  3  0  0  0  0  0  0  0  0  0
   10.2988   -1.5600    0.0000 C   0  0  0  0  0  0  0  0  0  0  0  0
   10.2988    0.1721    0.0000 C   0  0  0  0  0  0  0  0  0  0  0  0
   11.2988   -1.5600    0.0000 C   0  0  0  0  0  0  0  0  0  0  0  0
   11.7988   -0.6940    0.0000 C   0  0  0  0  0  0  0  0  0  0  0  0
    8.7988   -0.6940    0.0000 C   0  0  0  0  0  0  0  0  0  0  0  0
    8.2988   -1.5600    0.0000 C   0  0  0  0  0  0  0  0  0  0  0  0
    8.2988    0.1721    0.0000 C   0  0  0  0  0  0  0  0  0  0  0  0
    6.7988   -0.6940    0.0000 C   0  0  0  0  0  0  0  0  0  0  0  0
    7.2988   -1.5600    0.0000 C   0  0  0  0  0  0  0  0  0  0  0  0
    7.2988    0.1721    0.0000 C   0  0  0  0  0  0  0  0  0  0  0  0
    5.7988   -0.6940    0.0000 C   0  0  0  0  0  0  0  0  0  0  0  0
    4.2690   -1.1940    0.0000 C   0  0  0  0  0  0  0  0  0  0  0  0
    4.2690   -0.1940    0.0000 C   0  0  0  0  0  0  0  0  0  0  0  0
    3.4030    0.3060    0.0000 C   0  0  0  0  0  0  0  0  0  0  0  0
    3.4030   -1.6940    0.0000 C   0  0  0  0  0  0  0  0  0  0  0  0
    2.5369   -0.1940    0.0000 C   0  0  0  0  0  0  0  0  0  0  0  0
    2.5369   -1.1940    0.0000 C   0  0  0  0  0  0  0  0  0  0  0  0
    3.4030    1.3060    0.0000 C   0  0  0  0  0  0  0  0  0  0  0  0
    9.4888   -1.2309    0.0000 H   0  0  0  0  0  0  0  0  0  0  0  0
    9.7162   -1.7720    0.0000 H   0  0  0  0  0  0  0  0  0  0  0  0
   10.4065   -2.1706    0.0000 H   0  0  0  0  0  0  0  0  0  0  0  0
   10.4065    0.7826    0.0000 H   0  0  0  0  0  0  0  0  0  0  0  0
    9.7162    0.3841    0.0000 H   0  0  0  0  0  0  0  0  0  0  0  0
   11.1912   -2.1706    0.0000 H   0  0  0  0  0  0  0  0  0  0  0  0
   11.8814   -1.7720    0.0000 H   0  0  0  0  0  0  0  0  0  0  0  0
   12.2738   -1.0925    0.0000 H   0  0  0  0  0  0  0  0  0  0  0  0
   12.2738   -0.2954    0.0000 H   0  0  0  0  0  0  0  0  0  0  0  0
   11.6088    0.7090    0.0000 H   0  0  0  0  0  0  0  0  0  0  0  0
    8.6088   -2.0969    0.0000 H   0  0  0  0  0  0  0  0  0  0  0  0
    8.6088    0.7090    0.0000 H   0  0  0  0  0  0  0  0  0  0  0  0
    6.9888    0.7090    0.0000 H   0  0  0  0  0  0  0  0  0  0  0  0
    5.4078   -2.0880    0.0000 H   0  0  0  0  0  0  0  0  0  0  0  0
    3.4030   -2.3140    0.0000 H   0  0  0  0  0  0  0  0  0  0  0  0
    2.0000    0.1160    0.0000 H   0  0  0  0  0  0  0  0  0  0  0  0
    2.0000   -1.5040    0.0000 H   0  0  0  0  0  0  0  0  0  0  0  0
    2.5369    2.4260    0.0000 H   0  0  0  0  0  0  0  0  0  0  0  0
    2.0000    1.4960    0.0000 H   0  0  0  0  0  0  0  0  0  0  0  0
  1 16  1  0  0  0  0
  2 25  2  0  0  0  0
  3  9  1  0  0  0  0
  3 11  1  0  0  0  0
  3 35  1  0  0  0  0
  4 18  1  0  0  0  0
  4 19  1  0  0  0  0
  4 39  1  0  0  0  0
  5 18  2  0  0  0  0
  5 20  1  0  0  0  0
  6 25  1  0  0  0  0
  6 43  1  0  0  0  0
  6 44  1  0  0  0  0
  7  8  1  0  0  0  0
  7  9  1  0  0  0  0
  7 12  1  0  0  0  0
  7 26  1  0  0  0  0
  8 10  1  0  0  0  0
  8 27  1  0  0  0  0
  8 28  1  0  0  0  0
  9 29  1  0  0  0  0
  9 30  1  0  0  0  0
 10 11  1  0  0  0  0
 10 31  1  0  0  0  0
 10 32  1  0  0  0  0
 11 33  1  0  0  0  0
 11 34  1  0  0  0  0
 12 13  2  0  0  0  0
 12 14  1  0  0  0  0
 13 16  1  0  0  0  0
 13 36  1  0  0  0  0
 14 17  2  0  0  0  0
 14 37  1  0  0  0  0
 15 16  2  0  0  0  0
 15 17  1  0  0  0  0
 15 18  1  0  0  0  0
 17 38  1  0  0  0  0
 19 20  1  0  0  0  0
 19 22  2  0  0  0  0
 20 21  2  0  0  0  0
 21 23  1  0  0  0  0
 21 25  1  0  0  0  0
 22 24  1  0  0  0  0
 22 40  1  0  0  0  0
 23 24  2  0  0  0  0
 23 41  1  0  0  0  0
 24 42  1  0  0  0  0
M  END
> <PUBCHEM_COMPOUND_CID>
16665630

> <PUBCHEM_COMPOUND_CANONICALIZED>
1

> <PUBCHEM_CACTVS_COMPLEXITY>
490

> <PUBCHEM_CACTVS_HBOND_ACCEPTOR>
4

> <PUBCHEM_CACTVS_HBOND_DONOR>
3

> <PUBCHEM_CACTVS_ROTATABLE_BOND>
3

> <PUBCHEM_CACTVS_SUBSKEYS>
AAADceB7oQAAAAAAAAAAAAAAAAAAAWAAAAA8YIAAAAAAAFgB9AAAHwAQAAAADQjBnwwx0LbJkACoAydydACCgC2lEqAJmaE4dNiIaLrA3ZGUIYhokALIyecciMCOwAAAQAACACCAAACAAAQAQAAAAAAAAA==

> <PUBCHEM_IUPAC_OPENEYE_NAME>
2-[2-fluoro-4-(3-piperidyl)phenyl]-1H-benzimidazole-4-carboxamide

> <PUBCHEM_IUPAC_CAS_NAME>
2-[2-fluoro-4-(3-piperidinyl)phenyl]-1H-benzimidazole-4-carboxamide

> <PUBCHEM_IUPAC_NAME_MARKUP>
2-(2-fluoro-4-piperidin-3-ylphenyl)-1<I>H</I>-benzimidazole-4-carboxamide

> <PUBCHEM_IUPAC_NAME>
2-(2-fluoro-4-piperidin-3-ylphenyl)-1H-benzimidazole-4-carboxamide

> <PUBCHEM_IUPAC_SYSTEMATIC_NAME>
2-(2-fluoranyl-4-piperidin-3-yl-phenyl)-1H-benzimidazole-4-carboxamide

> <PUBCHEM_IUPAC_TRADITIONAL_NAME>
2-[2-fluoro-4-(3-piperidyl)phenyl]-1H-benzimidazole-4-carboxamide

> <PUBCHEM_IUPAC_INCHI>
InChI=1S/C19H19FN4O/c20-15-9-11(12-3-2-8-22-10-12)6-7-13(15)19-23-16-5-1-4-14(18(21)25)17(16)24-19/h1,4-7,9,12,22H,2-3,8,10H2,(H2,21,25)(H,23,24)

> <PUBCHEM_IUPAC_INCHIKEY>
OETCTXGISYWYMV-UHFFFAOYSA-N

> <PUBCHEM_XLOGP3_AA>
2.2

> <PUBCHEM_EXACT_MASS>
338.15428940

> <PUBCHEM_MOLECULAR_FORMULA>
C19H19FN4O

> <PUBCHEM_MOLECULAR_WEIGHT>
338.4

> <PUBCHEM_SMILES>
C1CC(CNC1)C2=CC(=C(C=C2)C3=NC4=C(C=CC=C4N3)C(=O)N)F

> <PUBCHEM_OPENEYE_CAN_SMILES>
C1CC(CNC1)C2=CC(=C(C=C2)C3=NC4=C(C=CC=C4N3)C(=O)N)F

> <PUBCHEM_OPENEYE_ISO_SMILES>
C1CC(CNC1)C2=CC(=C(C=C2)C3=NC4=C(C=CC=C4N3)C(=O)N)F

> <PUBCHEM_CACTVS_TPSA>
83.8

> <PUBCHEM_MONOISOTOPIC_WEIGHT>
338.15428940

> <PUBCHEM_TOTAL_CHARGE>
0

> <PUBCHEM_HEAVY_ATOM_COUNT>
25

> <PUBCHEM_ATOM_DEF_STEREO_COUNT>
0

> <PUBCHEM_ATOM_UDEF_STEREO_COUNT>
1

> <PUBCHEM_BOND_DEF_STEREO_COUNT>
0

> <PUBCHEM_BOND_UDEF_STEREO_COUNT>
0

> <PUBCHEM_ISOTOPIC_ATOM_COUNT>
0

> <PUBCHEM_COMPONENT_COUNT>
1

> <PUBCHEM_CACTVS_TAUTO_COUNT>
-1

> <PUBCHEM_COORDINATE_TYPE>
1
5
255

> <PUBCHEM_BONDANNOTATIONS>
12  13  8
12  14  8
13  16  8
14  17  8
15  16  8
15  17  8
19  20  8
19  22  8
20  21  8
21  23  8
22  24  8
23  24  8
4  18  8
4  19  8
5  18  8
5  20  8
7  12  3

$$$$
