49830616
  -OEChem-03202501232D

 52 55  0     0  0  0  0  0  0999 V2000
    6.2619   -3.5118    0.0000 F   0  0  0  0  0  0  0  0  0  0  0  0
    9.2619   -1.7798    0.0000 F   0  0  0  0  0  0  0  0  0  0  0  0
    9.8349    3.6519    0.0000 O   0  0  0  0  0  0  0  0  0  0  0  0
   10.1921    1.9571    0.0000 O   0  0  0  0  0  0  0  0  0  0  0  0
    7.2566    1.3384    0.0000 N   0  0  0  0  0  0  0  0  0  0  0  0
    3.7320   -1.2798    0.0000 N   0  0  0  0  0  0  0  0  0  0  0  0
    4.6783   -2.5845    0.0000 N   0  0  0  0  0  0  0  0  0  0  0  0
    5.9674    0.1817    0.0000 N   0  0  0  0  0  0  0  0  0  0  0  0
    5.6103    1.8765    0.0000 N   0  0  0  0  0  0  0  0  0  0  0  0
    2.0000   -2.2798    0.0000 N   0  0  0  0  0  0  0  0  0  0  0  0
    8.5458    2.4952    0.0000 C   0  0  0  0  0  0  0  0  0  0  0  0
    7.5673    2.2890    0.0000 C   0  0  0  0  0  0  0  0  0  0  0  0
    8.3396    3.4737    0.0000 C   0  0  0  0  0  0  0  0  0  0  0  0
    8.7520    1.5167    0.0000 C   0  0  0  0  0  0  0  0  0  0  0  0
    4.6783   -0.9750    0.0000 C   0  0  0  0  0  0  0  0  0  0  0  0
    9.5243    2.7014    0.0000 C   0  0  0  0  0  0  0  0  0  0  0  0
    5.2619   -1.7798    0.0000 C   0  0  0  0  0  0  0  0  0  0  0  0
    3.7320   -2.2798    0.0000 C   0  0  0  0  0  0  0  0  0  0  0  0
    4.9889   -0.0245    0.0000 C   0  0  0  0  0  0  0  0  0  0  0  0
    6.2781    1.1322    0.0000 C   0  0  0  0  0  0  0  0  0  0  0  0
    6.2619   -1.7798    0.0000 C   0  0  0  0  0  0  0  0  0  0  0  0
    2.8660   -2.7798    0.0000 C   0  0  0  0  0  0  0  0  0  0  0  0
    2.8660   -0.7798    0.0000 C   0  0  0  0  0  0  0  0  0  0  0  0
    4.3211    0.7198    0.0000 C   0  0  0  0  0  0  0  0  0  0  0  0
    2.0000   -1.2798    0.0000 C   0  0  0  0  0  0  0  0  0  0  0  0
    4.6318    1.6703    0.0000 C   0  0  0  0  0  0  0  0  0  0  0  0
    6.7619   -2.6458    0.0000 C   0  0  0  0  0  0  0  0  0  0  0  0
    6.7619   -0.9137    0.0000 C   0  0  0  0  0  0  0  0  0  0  0  0
    2.8660   -3.7798    0.0000 C   0  0  0  0  0  0  0  0  0  0  0  0
    7.7619   -2.6458    0.0000 C   0  0  0  0  0  0  0  0  0  0  0  0
    7.7619   -0.9137    0.0000 C   0  0  0  0  0  0  0  0  0  0  0  0
    8.2619   -1.7798    0.0000 C   0  0  0  0  0  0  0  0  0  0  0  0
    7.5467    2.9086    0.0000 H   0  0  0  0  0  0  0  0  0  0  0  0
    6.9534    2.3763    0.0000 H   0  0  0  0  0  0  0  0  0  0  0  0
    8.9462    3.6015    0.0000 H   0  0  0  0  0  0  0  0  0  0  0  0
    8.2117    4.0804    0.0000 H   0  0  0  0  0  0  0  0  0  0  0  0
    7.7329    3.3458    0.0000 H   0  0  0  0  0  0  0  0  0  0  0  0
    8.1453    1.3888    0.0000 H   0  0  0  0  0  0  0  0  0  0  0  0
    8.8798    0.9100    0.0000 H   0  0  0  0  0  0  0  0  0  0  0  0
    9.3587    1.6445    0.0000 H   0  0  0  0  0  0  0  0  0  0  0  0
    7.6707    0.8770    0.0000 H   0  0  0  0  0  0  0  0  0  0  0  0
    2.8660   -0.1598    0.0000 H   0  0  0  0  0  0  0  0  0  0  0  0
    3.7144    0.5919    0.0000 H   0  0  0  0  0  0  0  0  0  0  0  0
    1.4631   -0.9698    0.0000 H   0  0  0  0  0  0  0  0  0  0  0  0
    4.2177    2.1318    0.0000 H   0  0  0  0  0  0  0  0  0  0  0  0
    6.4519   -0.3768    0.0000 H   0  0  0  0  0  0  0  0  0  0  0  0
    2.2460   -3.7798    0.0000 H   0  0  0  0  0  0  0  0  0  0  0  0
    2.8660   -4.3998    0.0000 H   0  0  0  0  0  0  0  0  0  0  0  0
    3.4860   -3.7798    0.0000 H   0  0  0  0  0  0  0  0  0  0  0  0
   10.4416    3.7798    0.0000 H   0  0  0  0  0  0  0  0  0  0  0  0
    8.0719   -3.1827    0.0000 H   0  0  0  0  0  0  0  0  0  0  0  0
    8.0719   -0.3768    0.0000 H   0  0  0  0  0  0  0  0  0  0  0  0
  1 27  1  0  0  0  0
  2 32  1  0  0  0  0
  3 16  1  0  0  0  0
  3 50  1  0  0  0  0
  4 16  2  0  0  0  0
  5 12  1  0  0  0  0
  5 20  1  0  0  0  0
  5 41  1  0  0  0  0
  6 15  1  0  0  0  0
  6 18  1  0  0  0  0
  6 23  1  0  0  0  0
  7 17  1  0  0  0  0
  7 18  2  0  0  0  0
  8 19  2  0  0  0  0
  8 20  1  0  0  0  0
  9 20  2  0  0  0  0
  9 26  1  0  0  0  0
 10 22  2  0  0  0  0
 10 25  1  0  0  0  0
 11 12  1  0  0  0  0
 11 13  1  0  0  0  0
 11 14  1  0  0  0  0
 11 16  1  0  0  0  0
 12 33  1  0  0  0  0
 12 34  1  0  0  0  0
 13 35  1  0  0  0  0
 13 36  1  0  0  0  0
 13 37  1  0  0  0  0
 14 38  1  0  0  0  0
 14 39  1  0  0  0  0
 14 40  1  0  0  0  0
 15 17  2  0  0  0  0
 15 19  1  0  0  0  0
 17 21  1  0  0  0  0
 18 22  1  0  0  0  0
 19 24  1  0  0  0  0
 21 27  2  0  0  0  0
 21 28  1  0  0  0  0
 22 29  1  0  0  0  0
 23 25  2  0  0  0  0
 23 42  1  0  0  0  0
 24 26  2  0  0  0  0
 24 43  1  0  0  0  0
 25 44  1  0  0  0  0
 26 45  1  0  0  0  0
 27 30  1  0  0  0  0
 28 31  2  0  0  0  0
 28 46  1  0  0  0  0
 29 47  1  0  0  0  0
 29 48  1  0  0  0  0
 29 49  1  0  0  0  0
 30 32  2  0  0  0  0
 30 51  1  0  0  0  0
 31 32  1  0  0  0  0
 31 52  1  0  0  0  0
M  END
> <PUBCHEM_COMPOUND_CID>
49830616

> <PUBCHEM_COMPOUND_CANONICALIZED>
1

> <PUBCHEM_CACTVS_COMPLEXITY>
670

> <PUBCHEM_CACTVS_HBOND_ACCEPTOR>
9

> <PUBCHEM_CACTVS_HBOND_DONOR>
2

> <PUBCHEM_CACTVS_ROTATABLE_BOND>
6

> <PUBCHEM_CACTVS_SUBSKEYS>
AAADceB7sYAAAAAAAAAAAAAAAAAAAWAAAAA8WIAAAAAAAFgB/AAAHwAQCAAADgjBnww/uJ/MGgCoAzb3bACCgC0xEqAJ2KE4dJiIaOrA2dGUZAhqgALIyCcQgMAOAAAAAAAAAAAAAAAAAAAAAAAAAAAAAA==

> <PUBCHEM_IUPAC_OPENEYE_NAME>
3-[[4-[2-(2,4-difluorophenyl)-8-methyl-imidazo[1,2-a]pyrazin-3-yl]pyrimidin-2-yl]amino]-2,2-dimethyl-propanoic acid

> <PUBCHEM_IUPAC_CAS_NAME>
3-[[4-[2-(2,4-difluorophenyl)-8-methyl-3-imidazo[1,2-a]pyrazinyl]-2-pyrimidinyl]amino]-2,2-dimethylpropanoic acid

> <PUBCHEM_IUPAC_NAME_MARKUP>
3-[[4-[2-(2,4-difluorophenyl)-8-methylimidazo[1,2-a]pyrazin-3-yl]pyrimidin-2-yl]amino]-2,2-dimethylpropanoic acid

> <PUBCHEM_IUPAC_NAME>
3-[[4-[2-(2,4-difluorophenyl)-8-methylimidazo[1,2-a]pyrazin-3-yl]pyrimidin-2-yl]amino]-2,2-dimethylpropanoic acid

> <PUBCHEM_IUPAC_SYSTEMATIC_NAME>
3-[[4-[2-[2,4-bis(fluoranyl)phenyl]-8-methyl-imidazo[1,2-a]pyrazin-3-yl]pyrimidin-2-yl]amino]-2,2-dimethyl-propanoic acid

> <PUBCHEM_IUPAC_TRADITIONAL_NAME>
3-[[4-[2-(2,4-difluorophenyl)-8-methyl-imidazo[1,2-a]pyrazin-3-yl]pyrimidin-2-yl]amino]-2,2-dimethyl-propionic acid

> <PUBCHEM_IUPAC_INCHI>
InChI=1S/C22H20F2N6O2/c1-12-19-29-17(14-5-4-13(23)10-15(14)24)18(30(19)9-8-25-12)16-6-7-26-21(28-16)27-11-22(2,3)20(31)32/h4-10H,11H2,1-3H3,(H,31,32)(H,26,27,28)

> <PUBCHEM_IUPAC_INCHIKEY>
FXGYCYAFWHJUAS-UHFFFAOYSA-N

> <PUBCHEM_XLOGP3_AA>
4.2

> <PUBCHEM_EXACT_MASS>
438.16158023

> <PUBCHEM_MOLECULAR_FORMULA>
C22H20F2N6O2

> <PUBCHEM_MOLECULAR_WEIGHT>
438.4

> <PUBCHEM_SMILES>
CC1=NC=CN2C1=NC(=C2C3=NC(=NC=C3)NCC(C)(C)C(=O)O)C4=C(C=C(C=C4)F)F

> <PUBCHEM_OPENEYE_CAN_SMILES>
CC1=NC=CN2C1=NC(=C2C3=NC(=NC=C3)NCC(C)(C)C(=O)O)C4=C(C=C(C=C4)F)F

> <PUBCHEM_OPENEYE_ISO_SMILES>
CC1=NC=CN2C1=NC(=C2C3=NC(=NC=C3)NCC(C)(C)C(=O)O)C4=C(C=C(C=C4)F)F

> <PUBCHEM_CACTVS_TPSA>
105

> <PUBCHEM_MONOISOTOPIC_WEIGHT>
438.16158023

> <PUBCHEM_TOTAL_CHARGE>
0

> <PUBCHEM_HEAVY_ATOM_COUNT>
32

> <PUBCHEM_ATOM_DEF_STEREO_COUNT>
0

> <PUBCHEM_ATOM_UDEF_STEREO_COUNT>
0

> <PUBCHEM_BOND_DEF_STEREO_COUNT>
0

> <PUBCHEM_BOND_UDEF_STEREO_COUNT>
0

> <PUBCHEM_ISOTOPIC_ATOM_COUNT>
0

> <PUBCHEM_COMPONENT_COUNT>
1

> <PUBCHEM_CACTVS_TAUTO_COUNT>
-1

> <PUBCHEM_COORDINATE_TYPE>
1
5
255

> <PUBCHEM_BONDANNOTATIONS>
10  22  8
10  25  8
15  17  8
18  22  8
19  24  8
21  27  8
21  28  8
23  25  8
24  26  8
27  30  8
28  31  8
30  32  8
31  32  8
6  15  8
6  18  8
6  23  8
7  17  8
7  18  8
8  19  8
8  20  8
9  20  8
9  26  8

$$$$
