49830484
  -OEChem-03202504162D

 45 47  0     1  0  0  0  0  0999 V2000
    2.0000    2.5000    0.0000 F   0  0  0  0  0  0  0  0  0  0  0  0
    6.3301   -5.0000    0.0000 O   0  0  0  0  0  0  0  0  0  0  0  0
    2.8660   -1.0000    0.0000 O   0  0  0  0  0  0  0  0  0  0  0  0
    4.5981   -1.0000    0.0000 N   0  0  0  0  0  0  0  0  0  0  0  0
    3.7320    5.5000    0.0000 N   0  0  0  0  0  0  0  0  0  0  0  0
    4.5981   -2.0000    0.0000 C   0  0  3  0  0  0  0  0  0  0  0  0
    5.4641   -2.5000    0.0000 C   0  0  0  0  0  0  0  0  0  0  0  0
    3.7320   -2.5000    0.0000 C   0  0  0  0  0  0  0  0  0  0  0  0
    5.4641   -3.5000    0.0000 C   0  0  0  0  0  0  0  0  0  0  0  0
    3.7320   -0.5000    0.0000 C   0  0  0  0  0  0  0  0  0  0  0  0
    6.3301   -2.0000    0.0000 C   0  0  0  0  0  0  0  0  0  0  0  0
    3.7320    0.5000    0.0000 C   0  0  0  0  0  0  0  0  0  0  0  0
    6.3301   -4.0000    0.0000 C   0  0  0  0  0  0  0  0  0  0  0  0
    3.7320    2.5000    0.0000 C   0  0  0  0  0  0  0  0  0  0  0  0
    2.8660    1.0000    0.0000 C   0  0  0  0  0  0  0  0  0  0  0  0
    4.5981    1.0000    0.0000 C   0  0  0  0  0  0  0  0  0  0  0  0
    7.1962   -2.5000    0.0000 C   0  0  0  0  0  0  0  0  0  0  0  0
    2.8660    2.0000    0.0000 C   0  0  0  0  0  0  0  0  0  0  0  0
    4.5981    2.0000    0.0000 C   0  0  0  0  0  0  0  0  0  0  0  0
    7.1962   -3.5000    0.0000 C   0  0  0  0  0  0  0  0  0  0  0  0
    3.7320    3.5000    0.0000 C   0  0  0  0  0  0  0  0  0  0  0  0
    4.5981    4.0000    0.0000 C   0  0  0  0  0  0  0  0  0  0  0  0
    2.8660    4.0000    0.0000 C   0  0  0  0  0  0  0  0  0  0  0  0
    4.5981    5.0000    0.0000 C   0  0  0  0  0  0  0  0  0  0  0  0
    2.8660    5.0000    0.0000 C   0  0  0  0  0  0  0  0  0  0  0  0
    7.1962   -5.5000    0.0000 C   0  0  0  0  0  0  0  0  0  0  0  0
    5.1350   -1.6900    0.0000 H   0  0  0  0  0  0  0  0  0  0  0  0
    5.1350   -0.6900    0.0000 H   0  0  0  0  0  0  0  0  0  0  0  0
    3.4220   -1.9631    0.0000 H   0  0  0  0  0  0  0  0  0  0  0  0
    3.1951   -2.8100    0.0000 H   0  0  0  0  0  0  0  0  0  0  0  0
    4.0420   -3.0369    0.0000 H   0  0  0  0  0  0  0  0  0  0  0  0
    4.9272   -3.8100    0.0000 H   0  0  0  0  0  0  0  0  0  0  0  0
    6.3301   -1.3800    0.0000 H   0  0  0  0  0  0  0  0  0  0  0  0
    2.3291    0.6900    0.0000 H   0  0  0  0  0  0  0  0  0  0  0  0
    5.1350    0.6900    0.0000 H   0  0  0  0  0  0  0  0  0  0  0  0
    7.7331   -2.1900    0.0000 H   0  0  0  0  0  0  0  0  0  0  0  0
    5.1350    2.3100    0.0000 H   0  0  0  0  0  0  0  0  0  0  0  0
    7.7331   -3.8100    0.0000 H   0  0  0  0  0  0  0  0  0  0  0  0
    5.1350    3.6900    0.0000 H   0  0  0  0  0  0  0  0  0  0  0  0
    2.3291    3.6900    0.0000 H   0  0  0  0  0  0  0  0  0  0  0  0
    5.1350    5.3100    0.0000 H   0  0  0  0  0  0  0  0  0  0  0  0
    2.3291    5.3100    0.0000 H   0  0  0  0  0  0  0  0  0  0  0  0
    6.8862   -6.0369    0.0000 H   0  0  0  0  0  0  0  0  0  0  0  0
    7.7331   -5.8100    0.0000 H   0  0  0  0  0  0  0  0  0  0  0  0
    7.5062   -4.9631    0.0000 H   0  0  0  0  0  0  0  0  0  0  0  0
  1 18  1  0  0  0  0
  2 13  1  0  0  0  0
  2 26  1  0  0  0  0
  3 10  2  0  0  0  0
  4  6  1  0  0  0  0
  4 10  1  0  0  0  0
  4 28  1  0  0  0  0
  5 24  2  0  0  0  0
  5 25  1  0  0  0  0
  6  7  1  0  0  0  0
  6  8  1  0  0  0  0
  6 27  1  0  0  0  0
  7  9  2  0  0  0  0
  7 11  1  0  0  0  0
  8 29  1  0  0  0  0
  8 30  1  0  0  0  0
  8 31  1  0  0  0  0
  9 13  1  0  0  0  0
  9 32  1  0  0  0  0
 10 12  1  0  0  0  0
 11 17  2  0  0  0  0
 11 33  1  0  0  0  0
 12 15  2  0  0  0  0
 12 16  1  0  0  0  0
 13 20  2  0  0  0  0
 14 18  2  0  0  0  0
 14 19  1  0  0  0  0
 14 21  1  0  0  0  0
 15 18  1  0  0  0  0
 15 34  1  0  0  0  0
 16 19  2  0  0  0  0
 16 35  1  0  0  0  0
 17 20  1  0  0  0  0
 17 36  1  0  0  0  0
 19 37  1  0  0  0  0
 20 38  1  0  0  0  0
 21 22  2  0  0  0  0
 21 23  1  0  0  0  0
 22 24  1  0  0  0  0
 22 39  1  0  0  0  0
 23 25  2  0  0  0  0
 23 40  1  0  0  0  0
 24 41  1  0  0  0  0
 25 42  1  0  0  0  0
 26 43  1  0  0  0  0
 26 44  1  0  0  0  0
 26 45  1  0  0  0  0
M  END
> <PUBCHEM_COMPOUND_CID>
49830484

> <PUBCHEM_COMPOUND_CANONICALIZED>
1

> <PUBCHEM_CACTVS_COMPLEXITY>
455

> <PUBCHEM_CACTVS_HBOND_ACCEPTOR>
4

> <PUBCHEM_CACTVS_HBOND_DONOR>
1

> <PUBCHEM_CACTVS_ROTATABLE_BOND>
5

> <PUBCHEM_CACTVS_SUBSKEYS>
AAADceB7MQAAAAAAAAAAAAAAAAAAAAAAAAA8YIAAAAAAAAAB0AAAHwAQAAAADCzBmg4+hpLIFACoAjF3VACCiCA1IiAI2KE+bNgMJnLEtZuEMShk1hHI6Ye4yPCOwAABAAAAAACAAAIAAAAAAAAAAAAAAA==

> <PUBCHEM_IUPAC_OPENEYE_NAME>
3-fluoro-N-[1-(3-methoxyphenyl)ethyl]-4-(4-pyridyl)benzamide

> <PUBCHEM_IUPAC_CAS_NAME>
3-fluoro-N-[1-(3-methoxyphenyl)ethyl]-4-pyridin-4-ylbenzamide

> <PUBCHEM_IUPAC_NAME_MARKUP>
3-fluoro-<I>N</I>-[1-(3-methoxyphenyl)ethyl]-4-pyridin-4-ylbenzamide

> <PUBCHEM_IUPAC_NAME>
3-fluoro-N-[1-(3-methoxyphenyl)ethyl]-4-pyridin-4-ylbenzamide

> <PUBCHEM_IUPAC_SYSTEMATIC_NAME>
3-fluoranyl-N-[1-(3-methoxyphenyl)ethyl]-4-pyridin-4-yl-benzamide

> <PUBCHEM_IUPAC_TRADITIONAL_NAME>
3-fluoro-N-[1-(3-methoxyphenyl)ethyl]-4-(4-pyridyl)benzamide

> <PUBCHEM_IUPAC_INCHI>
InChI=1S/C21H19FN2O2/c1-14(16-4-3-5-18(12-16)26-2)24-21(25)17-6-7-19(20(22)13-17)15-8-10-23-11-9-15/h3-14H,1-2H3,(H,24,25)

> <PUBCHEM_IUPAC_INCHIKEY>
TVEREFRWBLRPPJ-UHFFFAOYSA-N

> <PUBCHEM_XLOGP3_AA>
3.7

> <PUBCHEM_EXACT_MASS>
350.14305602

> <PUBCHEM_MOLECULAR_FORMULA>
C21H19FN2O2

> <PUBCHEM_MOLECULAR_WEIGHT>
350.4

> <PUBCHEM_SMILES>
CC(C1=CC(=CC=C1)OC)NC(=O)C2=CC(=C(C=C2)C3=CC=NC=C3)F

> <PUBCHEM_OPENEYE_CAN_SMILES>
CC(C1=CC(=CC=C1)OC)NC(=O)C2=CC(=C(C=C2)C3=CC=NC=C3)F

> <PUBCHEM_OPENEYE_ISO_SMILES>
CC(C1=CC(=CC=C1)OC)NC(=O)C2=CC(=C(C=C2)C3=CC=NC=C3)F

> <PUBCHEM_CACTVS_TPSA>
51.2

> <PUBCHEM_MONOISOTOPIC_WEIGHT>
350.14305602

> <PUBCHEM_TOTAL_CHARGE>
0

> <PUBCHEM_HEAVY_ATOM_COUNT>
26

> <PUBCHEM_ATOM_DEF_STEREO_COUNT>
0

> <PUBCHEM_ATOM_UDEF_STEREO_COUNT>
1

> <PUBCHEM_BOND_DEF_STEREO_COUNT>
0

> <PUBCHEM_BOND_UDEF_STEREO_COUNT>
0

> <PUBCHEM_ISOTOPIC_ATOM_COUNT>
0

> <PUBCHEM_COMPONENT_COUNT>
1

> <PUBCHEM_CACTVS_TAUTO_COUNT>
-1

> <PUBCHEM_COORDINATE_TYPE>
1
5
255

> <PUBCHEM_BONDANNOTATIONS>
11  17  8
12  15  8
12  16  8
13  20  8
14  18  8
14  19  8
15  18  8
16  19  8
17  20  8
21  22  8
21  23  8
22  24  8
23  25  8
5  24  8
5  25  8
6  8  3
7  11  8
7  9  8
9  13  8

$$$$
