44460281
  -OEChem-03202506182D

 79 85  0     1  0  0  0  0  0999 V2000
    3.3926    0.1801    0.0000 O   0  0  0  0  0  0  0  0  0  0  0  0
    6.3482    0.1053    0.0000 O   0  0  0  0  0  0  0  0  0  0  0  0
    6.0427    1.7286    0.0000 O   0  0  0  0  0  0  0  0  0  0  0  0
    4.3107    2.7285    0.0000 O   0  0  0  0  0  0  0  0  0  0  0  0
    2.5405    1.7317    0.0000 O   0  0  0  0  0  0  0  0  0  0  0  0
    3.1607   -3.0182    0.0000 O   0  0  0  0  0  0  0  0  0  0  0  0
    8.0837   -0.1251    0.0000 O   0  0  0  0  0  0  0  0  0  0  0  0
    7.4088    0.3626    0.0000 O   0  0  0  0  0  0  0  0  0  0  0  0
    5.1767    4.2286    0.0000 O   0  0  0  0  0  0  0  0  0  0  0  0
    7.2525   -5.2299    0.0000 O   0  0  0  0  0  0  0  0  0  0  0  0
    8.0250   -4.7760    0.0000 O   0  0  0  0  0  0  0  0  0  0  0  0
    4.0581   -6.1845    0.0000 O   0  0  0  0  0  0  0  0  0  0  0  0
    8.6572    4.2631    0.0000 O   0  0  0  0  0  0  0  0  0  0  0  0
    6.2595   -6.4133    0.0000 O   0  0  0  0  0  0  0  0  0  0  0  0
    8.0268    5.1490    0.0000 O   0  0  0  0  0  0  0  0  0  0  0  0
   10.4132   -2.4497    0.0000 O   0  0  0  0  0  0  0  0  0  0  0  0
    9.5420   -4.4843    0.0000 O   0  0  0  0  0  0  0  0  0  0  0  0
   10.4389    1.2044    0.0000 O   0  0  0  0  0  0  0  0  0  0  0  0
   10.4389    3.2527    0.0000 O   0  0  0  0  0  0  0  0  0  0  0  0
    3.6458    5.2973    0.0000 O   0  0  0  0  0  0  0  0  0  0  0  0
    5.8826    6.5887    0.0000 O   0  0  0  0  0  0  0  0  0  0  0  0
    5.1928    0.1870    0.0000 C   0  0  3  0  0  0  0  0  0  0  0  0
    5.1767    1.2286    0.0000 C   0  0  3  0  0  0  0  0  0  0  0  0
    4.2947   -0.3407    0.0000 C   0  0  3  0  0  0  0  0  0  0  0  0
    4.3107    1.7286    0.0000 C   0  0  3  0  0  0  0  0  0  0  0  0
    3.4007    1.2217    0.0000 C   0  0  2  0  0  0  0  0  0  0  0  0
    3.8039   -1.3900    0.0000 C   0  0  0  0  0  0  0  0  0  0  0  0
    4.0311   -2.5258    0.0000 C   0  0  0  0  0  0  0  0  0  0  0  0
    4.8877   -3.3056    0.0000 C   0  0  0  0  0  0  0  0  0  0  0  0
    7.2300   -0.6459    0.0000 C   0  0  0  0  0  0  0  0  0  0  0  0
    6.9088    1.2286    0.0000 C   0  0  0  0  0  0  0  0  0  0  0  0
    5.1767    3.2285    0.0000 C   0  0  0  0  0  0  0  0  0  0  0  0
    6.0398   -3.4254    0.0000 C   0  0  0  0  0  0  0  0  0  0  0  0
    7.4945   -1.7737    0.0000 C   0  0  0  0  0  0  0  0  0  0  0  0
    7.0385   -2.8385    0.0000 C   0  0  0  0  0  0  0  0  0  0  0  0
    7.7748    1.7286    0.0000 C   0  0  0  0  0  0  0  0  0  0  0  0
    6.0427    2.7285    0.0000 C   0  0  0  0  0  0  0  0  0  0  0  0
    7.7748    2.7285    0.0000 C   0  0  0  0  0  0  0  0  0  0  0  0
    6.9088    3.2285    0.0000 C   0  0  0  0  0  0  0  0  0  0  0  0
    4.1646   -4.2716    0.0000 C   0  0  0  0  0  0  0  0  0  0  0  0
    6.5488   -4.5194    0.0000 C   0  0  0  0  0  0  0  0  0  0  0  0
    8.6902   -1.6120    0.0000 C   0  0  0  0  0  0  0  0  0  0  0  0
    7.7466   -3.8155    0.0000 C   0  0  0  0  0  0  0  0  0  0  0  0
    8.6687    1.1939    0.0000 C   0  0  0  0  0  0  0  0  0  0  0  0
    4.6481   -5.3770    0.0000 C   0  0  0  0  0  0  0  0  0  0  0  0
    4.6314    3.3057    0.0000 C   0  0  0  0  0  0  0  0  0  0  0  0
    5.8482   -5.5018    0.0000 C   0  0  0  0  0  0  0  0  0  0  0  0
    8.6687    3.2632    0.0000 C   0  0  0  0  0  0  0  0  0  0  0  0
    7.1146    4.7393    0.0000 C   0  0  0  0  0  0  0  0  0  0  0  0
    9.4207   -2.5723    0.0000 C   0  0  0  0  0  0  0  0  0  0  0  0
    8.9458   -3.6815    0.0000 C   0  0  0  0  0  0  0  0  0  0  0  0
    9.5748    1.7077    0.0000 C   0  0  0  0  0  0  0  0  0  0  0  0
    9.5748    2.7494    0.0000 C   0  0  0  0  0  0  0  0  0  0  0  0
    4.5282    4.8269    0.0000 C   0  0  0  0  0  0  0  0  0  0  0  0
    5.8487    5.5893    0.0000 C   0  0  0  0  0  0  0  0  0  0  0  0
    5.6431    0.6132    0.0000 H   0  0  0  0  0  0  0  0  0  0  0  0
    5.7160    0.9227    0.0000 H   0  0  0  0  0  0  0  0  0  0  0  0
    3.7033   -0.5268    0.0000 H   0  0  0  0  0  0  0  0  0  0  0  0
    3.7761    2.0427    0.0000 H   0  0  0  0  0  0  0  0  0  0  0  0
    3.4090    1.8416    0.0000 H   0  0  0  0  0  0  0  0  0  0  0  0
    3.3501   -0.9676    0.0000 H   0  0  0  0  0  0  0  0  0  0  0  0
    3.2626   -1.6923    0.0000 H   0  0  0  0  0  0  0  0  0  0  0  0
    2.0000    1.4279    0.0000 H   0  0  0  0  0  0  0  0  0  0  0  0
    3.5487   -4.2003    0.0000 H   0  0  0  0  0  0  0  0  0  0  0  0
    8.9276   -1.0392    0.0000 H   0  0  0  0  0  0  0  0  0  0  0  0
    8.6616    0.5739    0.0000 H   0  0  0  0  0  0  0  0  0  0  0  0
    4.1287    2.9428    0.0000 H   0  0  0  0  0  0  0  0  0  0  0  0
    7.0892   -5.8280    0.0000 H   0  0  0  0  0  0  0  0  0  0  0  0
    8.6270   -4.9242    0.0000 H   0  0  0  0  0  0  0  0  0  0  0  0
    3.4416   -6.1180    0.0000 H   0  0  0  0  0  0  0  0  0  0  0  0
    9.1905    4.5793    0.0000 H   0  0  0  0  0  0  0  0  0  0  0  0
    5.8975   -6.9167    0.0000 H   0  0  0  0  0  0  0  0  0  0  0  0
    8.0897    5.7658    0.0000 H   0  0  0  0  0  0  0  0  0  0  0  0
   10.6550   -1.8788    0.0000 H   0  0  0  0  0  0  0  0  0  0  0  0
   10.1579   -4.4130    0.0000 H   0  0  0  0  0  0  0  0  0  0  0  0
   10.9770    1.5123    0.0000 H   0  0  0  0  0  0  0  0  0  0  0  0
   10.9770    2.9448    0.0000 H   0  0  0  0  0  0  0  0  0  0  0  0
    3.6248    5.9170    0.0000 H   0  0  0  0  0  0  0  0  0  0  0  0
    5.3564    6.9167    0.0000 H   0  0  0  0  0  0  0  0  0  0  0  0
  1 24  1  0  0  0  0
  1 26  1  0  0  0  0
  2 22  1  0  0  0  0
  2 30  1  0  0  0  0
  3 23  1  0  0  0  0
  3 31  1  0  0  0  0
  4 25  1  0  0  0  0
  4 32  1  0  0  0  0
 26  5  1  6  0  0  0
  5 63  1  0  0  0  0
  6 28  2  0  0  0  0
  7 30  2  0  0  0  0
  8 31  2  0  0  0  0
  9 32  2  0  0  0  0
 10 41  1  0  0  0  0
 10 68  1  0  0  0  0
 11 43  1  0  0  0  0
 11 69  1  0  0  0  0
 12 45  1  0  0  0  0
 12 70  1  0  0  0  0
 13 48  1  0  0  0  0
 13 71  1  0  0  0  0
 14 47  1  0  0  0  0
 14 72  1  0  0  0  0
 15 49  1  0  0  0  0
 15 73  1  0  0  0  0
 16 50  1  0  0  0  0
 16 74  1  0  0  0  0
 17 51  1  0  0  0  0
 17 75  1  0  0  0  0
 18 52  1  0  0  0  0
 18 76  1  0  0  0  0
 19 53  1  0  0  0  0
 19 77  1  0  0  0  0
 20 54  1  0  0  0  0
 20 78  1  0  0  0  0
 21 55  1  0  0  0  0
 21 79  1  0  0  0  0
 22 23  1  0  0  0  0
 22 24  1  0  0  0  0
 22 56  1  0  0  0  0
 23 25  1  0  0  0  0
 23 57  1  0  0  0  0
 24 27  1  0  0  0  0
 24 58  1  0  0  0  0
 25 26  1  0  0  0  0
 25 59  1  0  0  0  0
 26 60  1  0  0  0  0
 27 28  1  0  0  0  0
 27 61  1  0  0  0  0
 27 62  1  0  0  0  0
 28 29  1  0  0  0  0
 29 33  1  0  0  0  0
 29 40  2  0  0  0  0
 30 34  1  0  0  0  0
 31 36  1  0  0  0  0
 32 37  1  0  0  0  0
 33 35  1  0  0  0  0
 33 41  2  0  0  0  0
 34 35  1  0  0  0  0
 34 42  2  0  0  0  0
 35 43  2  0  0  0  0
 36 38  1  0  0  0  0
 36 44  2  0  0  0  0
 37 39  1  0  0  0  0
 37 46  2  0  0  0  0
 38 39  1  0  0  0  0
 38 48  2  0  0  0  0
 39 49  2  0  0  0  0
 40 45  1  0  0  0  0
 40 64  1  0  0  0  0
 41 47  1  0  0  0  0
 42 50  1  0  0  0  0
 42 65  1  0  0  0  0
 43 51  1  0  0  0  0
 44 52  1  0  0  0  0
 44 66  1  0  0  0  0
 45 47  2  0  0  0  0
 46 54  1  0  0  0  0
 46 67  1  0  0  0  0
 48 53  1  0  0  0  0
 49 55  1  0  0  0  0
 50 51  2  0  0  0  0
 52 53  2  0  0  0  0
 54 55  2  0  0  0  0
M  END
> <PUBCHEM_COMPOUND_CID>
44460281

> <PUBCHEM_COMPOUND_CANONICALIZED>
1

> <PUBCHEM_CACTVS_COMPLEXITY>
1500

> <PUBCHEM_CACTVS_HBOND_ACCEPTOR>
21

> <PUBCHEM_CACTVS_HBOND_DONOR>
13

> <PUBCHEM_CACTVS_ROTATABLE_BOND>
0

> <PUBCHEM_CACTVS_SUBSKEYS>
AAADceB8PgAAAAAAAAAAAAAAAAAAAAAAAAA0YMGCAAAAAACRVAAAGgAACAAADBSwmAMwDoAABgCIAqDSCAACAAAkIAAAiAEGiMgZNzaCNBqCcQEl4BUPuYfK7PzOoAABCAAYQABAAAIQADCAAAAAAAAAAA==

> <PUBCHEM_IUPAC_OPENEYE_NAME>
(20S)-7,8,9,12,13,14,20,27,28,29,32,33,34-tridecahydroxy-3,18,21,38-tetraoxaheptacyclo[20.16.0.02,19.05,10.011,16.025,30.031,36]octatriaconta-5,7,9,11,13,15,25,27,29,31,33,35-dodecaene-4,17,24,37-tetrone

> <PUBCHEM_IUPAC_CAS_NAME>
(20S)-7,8,9,12,13,14,20,27,28,29,32,33,34-tridecahydroxy-3,18,21,38-tetraoxaheptacyclo[20.16.0.02,19.05,10.011,16.025,30.031,36]octatriaconta-5,7,9,11,13,15,25,27,29,31,33,35-dodecaene-4,17,24,37-tetrone

> <PUBCHEM_IUPAC_NAME_MARKUP>
(20<I>S</I>)-7,8,9,12,13,14,20,27,28,29,32,33,34-tridecahydroxy-3,18,21,38-tetraoxaheptacyclo[20.16.0.0<SUP>2,19</SUP>.0<SUP>5,10</SUP>.0<SUP>11,16</SUP>.0<SUP>25,30</SUP>.0<SUP>31,36</SUP>]octatriaconta-5,7,9,11,13,15,25,27,29,31,33,35-dodecaene-4,17,24,37-tetrone

> <PUBCHEM_IUPAC_NAME>
(20S)-7,8,9,12,13,14,20,27,28,29,32,33,34-tridecahydroxy-3,18,21,38-tetraoxaheptacyclo[20.16.0.02,19.05,10.011,16.025,30.031,36]octatriaconta-5,7,9,11,13,15,25,27,29,31,33,35-dodecaene-4,17,24,37-tetrone

> <PUBCHEM_IUPAC_SYSTEMATIC_NAME>
(20S)-7,8,9,12,13,14,20,27,28,29,32,33,34-tridecakis(oxidanyl)-3,18,21,38-tetraoxaheptacyclo[20.16.0.02,19.05,10.011,16.025,30.031,36]octatriaconta-5,7,9,11,13,15,25,27,29,31,33,35-dodecaene-4,17,24,37-tetrone

> <PUBCHEM_IUPAC_TRADITIONAL_NAME>
(20S)-7,8,9,12,13,14,20,27,28,29,32,33,34-tridecahydroxy-3,18,21,38-tetraoxaheptacyclo[20.16.0.02,19.05,10.011,16.025,30.031,36]octatriaconta-5,7,9,11,13,15,25,27,29,31,33,35-dodecaene-4,17,24,37-diquinone

> <PUBCHEM_IUPAC_INCHI>
InChI=1S/C34H24O21/c35-10-5-15-28(53-31(48)7-2-12(37)21(41)25(45)17(7)16-6(10)1-11(36)20(40)24(16)44)29-30(34(51)52-15)55-33(50)9-4-14(39)23(43)27(47)19(9)18-8(32(49)54-29)3-13(38)22(42)26(18)46/h1-4,15,28-30,34,36-47,51H,5H2/t15?,28?,29?,30?,34-/m0/s1

> <PUBCHEM_IUPAC_INCHIKEY>
UANTWFGBQWWMCO-CCUNFABWSA-N

> <PUBCHEM_XLOGP3_AA>
0.8

> <PUBCHEM_EXACT_MASS>
768.08100777

> <PUBCHEM_MOLECULAR_FORMULA>
C34H24O21

> <PUBCHEM_MOLECULAR_WEIGHT>
768.5

> <PUBCHEM_SMILES>
C1C2C(C3C([C@H](O2)O)OC(=O)C4=CC(=C(C(=C4C5=C(C(=C(C=C5C(=O)O3)O)O)O)O)O)O)OC(=O)C6=CC(=C(C(=C6C7=C(C(=C(C=C7C1=O)O)O)O)O)O)O

> <PUBCHEM_OPENEYE_CAN_SMILES>
C1C2C(C3C(C(O2)O)OC(=O)C4=CC(=C(C(=C4C5=C(C(=C(C=C5C(=O)O3)O)O)O)O)O)O)OC(=O)C6=CC(=C(C(=C6C7=C(C(=C(C=C7C1=O)O)O)O)O)O)O

> <PUBCHEM_OPENEYE_ISO_SMILES>
C1C2C(C3C([C@H](O2)O)OC(=O)C4=CC(=C(C(=C4C5=C(C(=C(C=C5C(=O)O3)O)O)O)O)O)O)OC(=O)C6=CC(=C(C(=C6C7=C(C(=C(C=C7C1=O)O)O)O)O)O)O

> <PUBCHEM_CACTVS_TPSA>
368

> <PUBCHEM_MONOISOTOPIC_WEIGHT>
768.08100777

> <PUBCHEM_TOTAL_CHARGE>
0

> <PUBCHEM_HEAVY_ATOM_COUNT>
55

> <PUBCHEM_ATOM_DEF_STEREO_COUNT>
1

> <PUBCHEM_ATOM_UDEF_STEREO_COUNT>
4

> <PUBCHEM_BOND_DEF_STEREO_COUNT>
0

> <PUBCHEM_BOND_UDEF_STEREO_COUNT>
0

> <PUBCHEM_ISOTOPIC_ATOM_COUNT>
0

> <PUBCHEM_COMPONENT_COUNT>
1

> <PUBCHEM_CACTVS_TAUTO_COUNT>
-1

> <PUBCHEM_COORDINATE_TYPE>
1
5
255

> <PUBCHEM_BONDANNOTATIONS>
22  2  3
24  27  3
29  33  8
29  40  8
23  3  3
33  41  8
34  35  8
34  42  8
35  43  8
36  38  8
36  44  8
37  39  8
37  46  8
38  48  8
39  49  8
25  4  3
40  45  8
41  47  8
42  50  8
43  51  8
44  52  8
45  47  8
46  54  8
48  53  8
49  55  8
26  5  6
50  51  8
52  53  8
54  55  8

$$$$
