49830350
  -OEChem-03202502512D

 54 58  0     0  0  0  0  0  0999 V2000
    4.6783   -1.8680    0.0000 S   0  0  0  0  0  0  0  0  0  0  0  0
   10.5028    3.6241    0.0000 F   0  0  0  0  0  0  0  0  0  0  0  0
    7.5673    3.0055    0.0000 O   0  0  0  0  0  0  0  0  0  0  0  0
    2.0000   -0.5633    0.0000 N   0  0  0  0  0  0  0  0  0  0  0  0
    2.8660    0.9367    0.0000 N   0  0  0  0  0  0  0  0  0  0  0  0
    5.9209    3.5436    0.0000 N   0  0  0  0  0  0  0  0  0  0  0  0
    2.0000   -4.5633    0.0000 N   0  0  0  0  0  0  0  0  0  0  0  0
    7.2101    4.7003    0.0000 N   0  0  0  0  0  0  0  0  0  0  0  0
    3.7320   -0.5633    0.0000 C   0  0  0  0  0  0  0  0  0  0  0  0
    4.6783   -0.2585    0.0000 C   0  0  0  0  0  0  0  0  0  0  0  0
    3.7320   -1.5633    0.0000 C   0  0  0  0  0  0  0  0  0  0  0  0
    2.8660   -2.0633    0.0000 C   0  0  0  0  0  0  0  0  0  0  0  0
    4.9889    0.6920    0.0000 C   0  0  0  0  0  0  0  0  0  0  0  0
    2.8660   -0.0633    0.0000 C   0  0  0  0  0  0  0  0  0  0  0  0
    5.2619   -1.0633    0.0000 C   0  0  0  0  0  0  0  0  0  0  0  0
    2.8660   -3.0633    0.0000 C   0  0  0  0  0  0  0  0  0  0  0  0
    2.0000   -1.5633    0.0000 C   0  0  0  0  0  0  0  0  0  0  0  0
    4.3211    1.4363    0.0000 C   0  0  0  0  0  0  0  0  0  0  0  0
    5.9674    0.8982    0.0000 C   0  0  0  0  0  0  0  0  0  0  0  0
    5.6103    2.5930    0.0000 C   0  0  0  0  0  0  0  0  0  0  0  0
    4.6318    2.3868    0.0000 C   0  0  0  0  0  0  0  0  0  0  0  0
    6.2781    1.8487    0.0000 C   0  0  0  0  0  0  0  0  0  0  0  0
    3.7320   -3.5633    0.0000 C   0  0  0  0  0  0  0  0  0  0  0  0
    2.0000   -3.5633    0.0000 C   0  0  0  0  0  0  0  0  0  0  0  0
    3.7320   -4.5633    0.0000 C   0  0  0  0  0  0  0  0  0  0  0  0
    2.8660   -5.0633    0.0000 C   0  0  0  0  0  0  0  0  0  0  0  0
    6.8994    3.7498    0.0000 C   0  0  0  0  0  0  0  0  0  0  0  0
    2.8660   -6.0633    0.0000 C   0  0  0  0  0  0  0  0  0  0  0  0
    8.1886    4.9065    0.0000 C   0  0  0  0  0  0  0  0  0  0  0  0
    8.8564    4.1622    0.0000 C   0  0  0  0  0  0  0  0  0  0  0  0
    8.4993    5.8570    0.0000 C   0  0  0  0  0  0  0  0  0  0  0  0
    9.8349    4.3684    0.0000 C   0  0  0  0  0  0  0  0  0  0  0  0
    9.4778    6.0633    0.0000 C   0  0  0  0  0  0  0  0  0  0  0  0
   10.1456    5.3190    0.0000 C   0  0  0  0  0  0  0  0  0  0  0  0
    5.8819   -1.0633    0.0000 H   0  0  0  0  0  0  0  0  0  0  0  0
    1.4631   -1.8733    0.0000 H   0  0  0  0  0  0  0  0  0  0  0  0
    3.7144    1.3084    0.0000 H   0  0  0  0  0  0  0  0  0  0  0  0
    6.3815    0.4367    0.0000 H   0  0  0  0  0  0  0  0  0  0  0  0
    4.2177    2.8483    0.0000 H   0  0  0  0  0  0  0  0  0  0  0  0
    6.8848    1.9766    0.0000 H   0  0  0  0  0  0  0  0  0  0  0  0
    4.2690   -3.2533    0.0000 H   0  0  0  0  0  0  0  0  0  0  0  0
    1.4631   -3.2533    0.0000 H   0  0  0  0  0  0  0  0  0  0  0  0
    2.3291    1.2467    0.0000 H   0  0  0  0  0  0  0  0  0  0  0  0
    3.4030    1.2467    0.0000 H   0  0  0  0  0  0  0  0  0  0  0  0
    4.2690   -4.8733    0.0000 H   0  0  0  0  0  0  0  0  0  0  0  0
    5.5069    4.0050    0.0000 H   0  0  0  0  0  0  0  0  0  0  0  0
    2.2460   -6.0633    0.0000 H   0  0  0  0  0  0  0  0  0  0  0  0
    2.8660   -6.6833    0.0000 H   0  0  0  0  0  0  0  0  0  0  0  0
    3.4860   -6.0633    0.0000 H   0  0  0  0  0  0  0  0  0  0  0  0
    6.7960    5.1618    0.0000 H   0  0  0  0  0  0  0  0  0  0  0  0
    8.6638    3.5729    0.0000 H   0  0  0  0  0  0  0  0  0  0  0  0
    8.0852    6.3185    0.0000 H   0  0  0  0  0  0  0  0  0  0  0  0
    9.6704    6.6526    0.0000 H   0  0  0  0  0  0  0  0  0  0  0  0
   10.7523    5.4468    0.0000 H   0  0  0  0  0  0  0  0  0  0  0  0
  1 11  1  0  0  0  0
  1 15  1  0  0  0  0
  2 32  1  0  0  0  0
  3 27  2  0  0  0  0
  4 14  2  0  0  0  0
  4 17  1  0  0  0  0
  5 14  1  0  0  0  0
  5 43  1  0  0  0  0
  5 44  1  0  0  0  0
  6 20  1  0  0  0  0
  6 27  1  0  0  0  0
  6 46  1  0  0  0  0
  7 24  1  0  0  0  0
  7 26  2  0  0  0  0
  8 27  1  0  0  0  0
  8 29  1  0  0  0  0
  8 50  1  0  0  0  0
  9 10  1  0  0  0  0
  9 11  2  0  0  0  0
  9 14  1  0  0  0  0
 10 13  1  0  0  0  0
 10 15  2  0  0  0  0
 11 12  1  0  0  0  0
 12 16  1  0  0  0  0
 12 17  2  0  0  0  0
 13 18  2  0  0  0  0
 13 19  1  0  0  0  0
 15 35  1  0  0  0  0
 16 23  1  0  0  0  0
 16 24  2  0  0  0  0
 17 36  1  0  0  0  0
 18 21  1  0  0  0  0
 18 37  1  0  0  0  0
 19 22  2  0  0  0  0
 19 38  1  0  0  0  0
 20 21  2  0  0  0  0
 20 22  1  0  0  0  0
 21 39  1  0  0  0  0
 22 40  1  0  0  0  0
 23 25  2  0  0  0  0
 23 41  1  0  0  0  0
 24 42  1  0  0  0  0
 25 26  1  0  0  0  0
 25 45  1  0  0  0  0
 26 28  1  0  0  0  0
 28 47  1  0  0  0  0
 28 48  1  0  0  0  0
 28 49  1  0  0  0  0
 29 30  2  0  0  0  0
 29 31  1  0  0  0  0
 30 32  1  0  0  0  0
 30 51  1  0  0  0  0
 31 33  2  0  0  0  0
 31 52  1  0  0  0  0
 32 34  2  0  0  0  0
 33 34  1  0  0  0  0
 33 53  1  0  0  0  0
 34 54  1  0  0  0  0
M  END
> <PUBCHEM_COMPOUND_CID>
49830350

> <PUBCHEM_COMPOUND_CANONICALIZED>
1

> <PUBCHEM_CACTVS_COMPLEXITY>
692

> <PUBCHEM_CACTVS_HBOND_ACCEPTOR>
6

> <PUBCHEM_CACTVS_HBOND_DONOR>
3

> <PUBCHEM_CACTVS_ROTATABLE_BOND>
4

> <PUBCHEM_CACTVS_SUBSKEYS>
AAADceB7oQBAAAAAAAAAAAAAAAAAASAAAAA8eIEAAAAAAFgB/gAAHwQQAAAADAjFXgy/8dLIEAisAzZndACDgKkxCjAI2DA4ZJiIIOLgkZGEIAxolALoyCcQgMAOiAAAAAAAAAAQAAAAAAAAAAAAAAAAAA==

> <PUBCHEM_IUPAC_OPENEYE_NAME>
1-[4-[4-amino-7-(6-methyl-3-pyridyl)thieno[3,2-c]pyridin-3-yl]phenyl]-3-(3-fluorophenyl)urea

> <PUBCHEM_IUPAC_CAS_NAME>
1-[4-[4-amino-7-(6-methyl-3-pyridinyl)-3-thieno[3,2-c]pyridinyl]phenyl]-3-(3-fluorophenyl)urea

> <PUBCHEM_IUPAC_NAME_MARKUP>
1-[4-[4-amino-7-(6-methylpyridin-3-yl)thieno[3,2-c]pyridin-3-yl]phenyl]-3-(3-fluorophenyl)urea

> <PUBCHEM_IUPAC_NAME>
1-[4-[4-amino-7-(6-methylpyridin-3-yl)thieno[3,2-c]pyridin-3-yl]phenyl]-3-(3-fluorophenyl)urea

> <PUBCHEM_IUPAC_SYSTEMATIC_NAME>
1-[4-[4-azanyl-7-(6-methylpyridin-3-yl)thieno[3,2-c]pyridin-3-yl]phenyl]-3-(3-fluorophenyl)urea

> <PUBCHEM_IUPAC_TRADITIONAL_NAME>
1-[4-[4-amino-7-(6-methyl-3-pyridyl)thieno[3,2-c]pyridin-3-yl]phenyl]-3-(3-fluorophenyl)urea

> <PUBCHEM_IUPAC_INCHI>
InChI=1S/C26H20FN5OS/c1-15-5-6-17(12-29-15)21-13-30-25(28)23-22(14-34-24(21)23)16-7-9-19(10-8-16)31-26(33)32-20-4-2-3-18(27)11-20/h2-14H,1H3,(H2,28,30)(H2,31,32,33)

> <PUBCHEM_IUPAC_INCHIKEY>
LVECPYVAIBNSRV-UHFFFAOYSA-N

> <PUBCHEM_XLOGP3_AA>
4.8

> <PUBCHEM_EXACT_MASS>
469.13725961

> <PUBCHEM_MOLECULAR_FORMULA>
C26H20FN5OS

> <PUBCHEM_MOLECULAR_WEIGHT>
469.5

> <PUBCHEM_SMILES>
CC1=NC=C(C=C1)C2=CN=C(C3=C2SC=C3C4=CC=C(C=C4)NC(=O)NC5=CC(=CC=C5)F)N

> <PUBCHEM_OPENEYE_CAN_SMILES>
CC1=NC=C(C=C1)C2=CN=C(C3=C2SC=C3C4=CC=C(C=C4)NC(=O)NC5=CC(=CC=C5)F)N

> <PUBCHEM_OPENEYE_ISO_SMILES>
CC1=NC=C(C=C1)C2=CN=C(C3=C2SC=C3C4=CC=C(C=C4)NC(=O)NC5=CC(=CC=C5)F)N

> <PUBCHEM_CACTVS_TPSA>
121

> <PUBCHEM_MONOISOTOPIC_WEIGHT>
469.13725961

> <PUBCHEM_TOTAL_CHARGE>
0

> <PUBCHEM_HEAVY_ATOM_COUNT>
34

> <PUBCHEM_ATOM_DEF_STEREO_COUNT>
0

> <PUBCHEM_ATOM_UDEF_STEREO_COUNT>
0

> <PUBCHEM_BOND_DEF_STEREO_COUNT>
0

> <PUBCHEM_BOND_UDEF_STEREO_COUNT>
0

> <PUBCHEM_ISOTOPIC_ATOM_COUNT>
0

> <PUBCHEM_COMPONENT_COUNT>
1

> <PUBCHEM_CACTVS_TAUTO_COUNT>
-1

> <PUBCHEM_COORDINATE_TYPE>
1
5
255

> <PUBCHEM_BONDANNOTATIONS>
1  11  8
1  15  8
10  15  8
11  12  8
12  17  8
13  18  8
13  19  8
16  23  8
16  24  8
18  21  8
19  22  8
20  21  8
20  22  8
23  25  8
25  26  8
29  30  8
29  31  8
30  32  8
31  33  8
32  34  8
33  34  8
4  14  8
4  17  8
7  24  8
7  26  8
9  10  8
9  11  8
9  14  8

$$$$
