16664858
  -OEChem-03202504562D

 48 52  0     0  0  0  0  0  0999 V2000
    4.5613   -0.7200    0.0000 S   0  0  0  0  0  0  0  0  0  0  0  0
    2.8660   -1.6662    0.0000 O   0  0  0  0  0  0  0  0  0  0  0  0
    7.0981    0.8636    0.0000 O   0  0  0  0  0  0  0  0  0  0  0  0
    4.3660   -2.5322    0.0000 N   0  0  0  0  0  0  0  0  0  0  0  0
    5.3660    0.8636    0.0000 N   0  0  0  0  0  0  0  0  0  0  0  0
    8.0718   -0.0987    0.0000 N   0  0  0  0  0  0  0  0  0  0  0  0
    2.8660   -3.3983    0.0000 C   0  0  0  0  0  0  0  0  0  0  0  0
    2.0000   -3.8983    0.0000 C   0  0  0  0  0  0  0  0  0  0  0  0
    2.8660   -4.3983    0.0000 C   0  0  0  0  0  0  0  0  0  0  0  0
    3.3660   -2.5322    0.0000 C   0  0  0  0  0  0  0  0  0  0  0  0
    4.8660   -3.3983    0.0000 C   0  0  0  0  0  0  0  0  0  0  0  0
    4.8660   -1.6662    0.0000 C   0  0  0  0  0  0  0  0  0  0  0  0
    5.8660   -3.3983    0.0000 C   0  0  0  0  0  0  0  0  0  0  0  0
    6.3660   -2.5322    0.0000 C   0  0  0  0  0  0  0  0  0  0  0  0
    5.8660   -1.6662    0.0000 C   0  0  0  0  0  0  0  0  0  0  0  0
    6.1708   -0.7200    0.0000 C   0  0  0  0  0  0  0  0  0  0  0  0
    5.3660   -0.1364    0.0000 C   0  0  0  0  0  0  0  0  0  0  0  0
    7.1213   -0.4093    0.0000 C   0  0  0  0  0  0  0  0  0  0  0  0
    6.2320    1.3636    0.0000 C   0  0  0  0  0  0  0  0  0  0  0  0
    6.2320    2.3636    0.0000 C   0  0  0  0  0  0  0  0  0  0  0  0
    7.0981    2.8636    0.0000 C   0  0  0  0  0  0  0  0  0  0  0  0
    7.0981    3.8636    0.0000 C   0  0  0  0  0  0  0  0  0  0  0  0
    5.3660    2.8636    0.0000 C   0  0  0  0  0  0  0  0  0  0  0  0
    7.9920    2.3290    0.0000 C   0  0  0  0  0  0  0  0  0  0  0  0
    6.2320    4.3636    0.0000 C   0  0  0  0  0  0  0  0  0  0  0  0
    5.3660    3.8636    0.0000 C   0  0  0  0  0  0  0  0  0  0  0  0
    7.9920    4.3983    0.0000 C   0  0  0  0  0  0  0  0  0  0  0  0
    8.8981    2.8428    0.0000 C   0  0  0  0  0  0  0  0  0  0  0  0
    8.8981    3.8844    0.0000 C   0  0  0  0  0  0  0  0  0  0  0  0
    2.4276   -2.9599    0.0000 H   0  0  0  0  0  0  0  0  0  0  0  0
    1.6015   -3.4233    0.0000 H   0  0  0  0  0  0  0  0  0  0  0  0
    1.6015   -4.3732    0.0000 H   0  0  0  0  0  0  0  0  0  0  0  0
    2.6540   -4.9809    0.0000 H   0  0  0  0  0  0  0  0  0  0  0  0
    3.4766   -4.5059    0.0000 H   0  0  0  0  0  0  0  0  0  0  0  0
    4.2834   -3.6103    0.0000 H   0  0  0  0  0  0  0  0  0  0  0  0
    4.9737   -4.0088    0.0000 H   0  0  0  0  0  0  0  0  0  0  0  0
    5.7584   -4.0088    0.0000 H   0  0  0  0  0  0  0  0  0  0  0  0
    6.4486   -3.6103    0.0000 H   0  0  0  0  0  0  0  0  0  0  0  0
    6.8410   -2.9308    0.0000 H   0  0  0  0  0  0  0  0  0  0  0  0
    6.8410   -2.1337    0.0000 H   0  0  0  0  0  0  0  0  0  0  0  0
    4.8291    1.1736    0.0000 H   0  0  0  0  0  0  0  0  0  0  0  0
    4.8291    2.5536    0.0000 H   0  0  0  0  0  0  0  0  0  0  0  0
    7.9848    1.7090    0.0000 H   0  0  0  0  0  0  0  0  0  0  0  0
    6.2320    4.9836    0.0000 H   0  0  0  0  0  0  0  0  0  0  0  0
    4.8291    4.1736    0.0000 H   0  0  0  0  0  0  0  0  0  0  0  0
    7.9848    5.0182    0.0000 H   0  0  0  0  0  0  0  0  0  0  0  0
    9.4338    2.5307    0.0000 H   0  0  0  0  0  0  0  0  0  0  0  0
    9.4338    4.1965    0.0000 H   0  0  0  0  0  0  0  0  0  0  0  0
  1 12  1  0  0  0  0
  1 17  1  0  0  0  0
  2 10  2  0  0  0  0
  3 19  2  0  0  0  0
  4 10  1  0  0  0  0
  4 11  1  0  0  0  0
  4 12  1  0  0  0  0
  5 17  1  0  0  0  0
  5 19  1  0  0  0  0
  5 41  1  0  0  0  0
  6 18  3  0  0  0  0
  7  8  1  0  0  0  0
  7  9  1  0  0  0  0
  7 10  1  0  0  0  0
  7 30  1  0  0  0  0
  8  9  1  0  0  0  0
  8 31  1  0  0  0  0
  8 32  1  0  0  0  0
  9 33  1  0  0  0  0
  9 34  1  0  0  0  0
 11 13  1  0  0  0  0
 11 35  1  0  0  0  0
 11 36  1  0  0  0  0
 12 15  2  0  0  0  0
 13 14  1  0  0  0  0
 13 37  1  0  0  0  0
 13 38  1  0  0  0  0
 14 15  1  0  0  0  0
 14 39  1  0  0  0  0
 14 40  1  0  0  0  0
 15 16  1  0  0  0  0
 16 17  2  0  0  0  0
 16 18  1  0  0  0  0
 19 20  1  0  0  0  0
 20 21  1  0  0  0  0
 20 23  2  0  0  0  0
 21 22  1  0  0  0  0
 21 24  2  0  0  0  0
 22 25  1  0  0  0  0
 22 27  2  0  0  0  0
 23 26  1  0  0  0  0
 23 42  1  0  0  0  0
 24 28  1  0  0  0  0
 24 43  1  0  0  0  0
 25 26  2  0  0  0  0
 25 44  1  0  0  0  0
 26 45  1  0  0  0  0
 27 29  1  0  0  0  0
 27 46  1  0  0  0  0
 28 29  2  0  0  0  0
 28 47  1  0  0  0  0
 29 48  1  0  0  0  0
M  END
> <PUBCHEM_COMPOUND_CID>
16664858

> <PUBCHEM_COMPOUND_CANONICALIZED>
1

> <PUBCHEM_CACTVS_COMPLEXITY>
714

> <PUBCHEM_CACTVS_HBOND_ACCEPTOR>
4

> <PUBCHEM_CACTVS_HBOND_DONOR>
1

> <PUBCHEM_CACTVS_ROTATABLE_BOND>
3

> <PUBCHEM_CACTVS_SUBSKEYS>
AAADceB7MABAAAAAAAAAAAAAGAAAASAAAAA8YIAAAAAAAFjB1AAAHgQQAAAADQDB2AQwgcPAAAicBiFSUACjAIBlCBkIiBEIRMgIoDLglZGEIQhghgDoyY8YiMCOgAACAAAQAAAAAAQAACAAAAAAAAAAAA==

> <PUBCHEM_IUPAC_OPENEYE_NAME>
N-[3-cyano-7-(cyclopropanecarbonyl)-5,6-dihydro-4H-thieno[2,3-b]pyridin-2-yl]naphthalene-1-carboxamide

> <PUBCHEM_IUPAC_CAS_NAME>
N-[3-cyano-7-[cyclopropyl(oxo)methyl]-5,6-dihydro-4H-thieno[2,3-b]pyridin-2-yl]-1-naphthalenecarboxamide

> <PUBCHEM_IUPAC_NAME_MARKUP>
<I>N</I>-[3-cyano-7-(cyclopropanecarbonyl)-5,6-dihydro-4<I>H</I>-thieno[2,3-b]pyridin-2-yl]naphthalene-1-carboxamide

> <PUBCHEM_IUPAC_NAME>
N-[3-cyano-7-(cyclopropanecarbonyl)-5,6-dihydro-4H-thieno[2,3-b]pyridin-2-yl]naphthalene-1-carboxamide

> <PUBCHEM_IUPAC_SYSTEMATIC_NAME>
N-(3-cyano-7-cyclopropylcarbonyl-5,6-dihydro-4H-thieno[2,3-b]pyridin-2-yl)naphthalene-1-carboxamide

> <PUBCHEM_IUPAC_TRADITIONAL_NAME>
N-[3-cyano-7-(cyclopropanecarbonyl)-5,6-dihydro-4H-thieno[2,3-b]pyridin-2-yl]-1-naphthamide

> <PUBCHEM_IUPAC_INCHI>
InChI=1S/C23H19N3O2S/c24-13-19-18-9-4-12-26(22(28)15-10-11-15)23(18)29-21(19)25-20(27)17-8-3-6-14-5-1-2-7-16(14)17/h1-3,5-8,15H,4,9-12H2,(H,25,27)

> <PUBCHEM_IUPAC_INCHIKEY>
KTBZRPANEUUZDW-UHFFFAOYSA-N

> <PUBCHEM_XLOGP3_AA>
4.8

> <PUBCHEM_EXACT_MASS>
401.11979803

> <PUBCHEM_MOLECULAR_FORMULA>
C23H19N3O2S

> <PUBCHEM_MOLECULAR_WEIGHT>
401.5

> <PUBCHEM_SMILES>
C1CC2=C(N(C1)C(=O)C3CC3)SC(=C2C#N)NC(=O)C4=CC=CC5=CC=CC=C54

> <PUBCHEM_OPENEYE_CAN_SMILES>
C1CC2=C(N(C1)C(=O)C3CC3)SC(=C2C#N)NC(=O)C4=CC=CC5=CC=CC=C54

> <PUBCHEM_OPENEYE_ISO_SMILES>
C1CC2=C(N(C1)C(=O)C3CC3)SC(=C2C#N)NC(=O)C4=CC=CC5=CC=CC=C54

> <PUBCHEM_CACTVS_TPSA>
101

> <PUBCHEM_MONOISOTOPIC_WEIGHT>
401.11979803

> <PUBCHEM_TOTAL_CHARGE>
0

> <PUBCHEM_HEAVY_ATOM_COUNT>
29

> <PUBCHEM_ATOM_DEF_STEREO_COUNT>
0

> <PUBCHEM_ATOM_UDEF_STEREO_COUNT>
0

> <PUBCHEM_BOND_DEF_STEREO_COUNT>
0

> <PUBCHEM_BOND_UDEF_STEREO_COUNT>
0

> <PUBCHEM_ISOTOPIC_ATOM_COUNT>
0

> <PUBCHEM_COMPONENT_COUNT>
1

> <PUBCHEM_CACTVS_TAUTO_COUNT>
-1

> <PUBCHEM_COORDINATE_TYPE>
1
5
255

> <PUBCHEM_BONDANNOTATIONS>
1  12  8
1  17  8
12  15  8
15  16  8
16  17  8
20  21  8
20  23  8
21  22  8
21  24  8
22  25  8
22  27  8
23  26  8
24  28  8
25  26  8
27  29  8
28  29  8

$$$$
