11532048
  -OEChem-03202504362D

 51 54  0     1  0  0  0  0  0999 V2000
   12.3436   -1.0374    0.0000 Cl  0  0  0  0  0  0  0  0  0  0  0  0
   12.3205   -3.0373    0.0000 F   0  0  0  0  0  0  0  0  0  0  0  0
    4.1550   -1.5168    0.0000 O   0  0  0  0  0  0  0  0  0  0  0  0
    5.3993    2.0373    0.0000 O   0  0  0  0  0  0  0  0  0  0  0  0
    4.5333    0.5373    0.0000 N   0  0  3  0  0  0  0  0  0  0  0  0
    2.4608   -1.1566    0.0000 N   0  0  0  0  0  0  0  0  0  0  0  0
    8.8913    2.0719    0.0000 N   0  0  0  0  0  0  0  0  0  0  0  0
    8.8797   -0.9973    0.0000 N   0  0  0  0  0  0  0  0  0  0  0  0
    9.7974    0.5164    0.0000 N   0  0  0  0  0  0  0  0  0  0  0  0
    3.6197    0.1305    0.0000 C   0  0  2  0  0  0  0  0  0  0  0  0
    2.9506    0.8737    0.0000 C   0  0  0  0  0  0  0  0  0  0  0  0
    4.4287    1.5318    0.0000 C   0  0  0  0  0  0  0  0  0  0  0  0
    3.4506    1.7397    0.0000 C   0  0  0  0  0  0  0  0  0  0  0  0
    5.3993    0.0373    0.0000 C   0  0  0  0  0  0  0  0  0  0  0  0
    3.4118   -0.8476    0.0000 C   0  0  0  0  0  0  0  0  0  0  0  0
    6.2653    0.5373    0.0000 C   0  0  0  0  0  0  0  0  0  0  0  0
    6.2653    1.5373    0.0000 C   0  0  0  0  0  0  0  0  0  0  0  0
    7.1313    0.0373    0.0000 C   0  0  0  0  0  0  0  0  0  0  0  0
    7.9974    0.5373    0.0000 C   0  0  0  0  0  0  0  0  0  0  0  0
    7.1313    2.0373    0.0000 C   0  0  0  0  0  0  0  0  0  0  0  0
    7.9974    1.5373    0.0000 C   0  0  0  0  0  0  0  0  0  0  0  0
    8.8913    0.0026    0.0000 C   0  0  0  0  0  0  0  0  0  0  0  0
    5.3993    3.0373    0.0000 C   0  0  0  0  0  0  0  0  0  0  0  0
    9.7974    1.5581    0.0000 C   0  0  0  0  0  0  0  0  0  0  0  0
    9.7399   -1.5073    0.0000 C   0  0  0  0  0  0  0  0  0  0  0  0
   10.6117   -1.0174    0.0000 C   0  0  0  0  0  0  0  0  0  0  0  0
    9.7284   -2.5072    0.0000 C   0  0  0  0  0  0  0  0  0  0  0  0
   11.4719   -1.5273    0.0000 C   0  0  0  0  0  0  0  0  0  0  0  0
   10.5886   -3.0172    0.0000 C   0  0  0  0  0  0  0  0  0  0  0  0
   11.4603   -2.5273    0.0000 C   0  0  0  0  0  0  0  0  0  0  0  0
    4.1015   -0.2597    0.0000 H   0  0  0  0  0  0  0  0  0  0  0  0
    2.4490    1.2381    0.0000 H   0  0  0  0  0  0  0  0  0  0  0  0
    2.5357    0.4129    0.0000 H   0  0  0  0  0  0  0  0  0  0  0  0
    5.0487    1.5318    0.0000 H   0  0  0  0  0  0  0  0  0  0  0  0
    4.4935    2.1484    0.0000 H   0  0  0  0  0  0  0  0  0  0  0  0
    3.6422    2.3293    0.0000 H   0  0  0  0  0  0  0  0  0  0  0  0
    2.8842    1.9919    0.0000 H   0  0  0  0  0  0  0  0  0  0  0  0
    5.0008   -0.4377    0.0000 H   0  0  0  0  0  0  0  0  0  0  0  0
    5.7978   -0.4377    0.0000 H   0  0  0  0  0  0  0  0  0  0  0  0
    7.1313   -0.5827    0.0000 H   0  0  0  0  0  0  0  0  0  0  0  0
    2.3318   -1.7631    0.0000 H   0  0  0  0  0  0  0  0  0  0  0  0
    2.0000   -0.7418    0.0000 H   0  0  0  0  0  0  0  0  0  0  0  0
    7.1313    2.6573    0.0000 H   0  0  0  0  0  0  0  0  0  0  0  0
    8.3393   -1.3011    0.0000 H   0  0  0  0  0  0  0  0  0  0  0  0
    6.0193    3.0373    0.0000 H   0  0  0  0  0  0  0  0  0  0  0  0
    5.3993    3.6573    0.0000 H   0  0  0  0  0  0  0  0  0  0  0  0
    4.7793    3.0373    0.0000 H   0  0  0  0  0  0  0  0  0  0  0  0
   10.3331    1.8701    0.0000 H   0  0  0  0  0  0  0  0  0  0  0  0
   10.6188   -0.3974    0.0000 H   0  0  0  0  0  0  0  0  0  0  0  0
    9.1879   -2.8110    0.0000 H   0  0  0  0  0  0  0  0  0  0  0  0
   10.5814   -3.6372    0.0000 H   0  0  0  0  0  0  0  0  0  0  0  0
  1 28  1  0  0  0  0
  2 30  1  0  0  0  0
  3 15  2  0  0  0  0
  4 17  1  0  0  0  0
  4 23  1  0  0  0  0
  5 10  1  0  0  0  0
  5 12  1  0  0  0  0
  5 14  1  0  0  0  0
  6 15  1  0  0  0  0
  6 41  1  0  0  0  0
  6 42  1  0  0  0  0
  7 21  1  0  0  0  0
  7 24  2  0  0  0  0
  8 22  1  0  0  0  0
  8 25  1  0  0  0  0
  8 44  1  0  0  0  0
  9 22  2  0  0  0  0
  9 24  1  0  0  0  0
 10 11  1  0  0  0  0
 10 15  1  1  0  0  0
 10 31  1  0  0  0  0
 11 13  1  0  0  0  0
 11 32  1  0  0  0  0
 11 33  1  0  0  0  0
 12 13  1  0  0  0  0
 12 34  1  0  0  0  0
 12 35  1  0  0  0  0
 13 36  1  0  0  0  0
 13 37  1  0  0  0  0
 14 16  1  0  0  0  0
 14 38  1  0  0  0  0
 14 39  1  0  0  0  0
 16 17  1  0  0  0  0
 16 18  2  0  0  0  0
 17 20  2  0  0  0  0
 18 19  1  0  0  0  0
 18 40  1  0  0  0  0
 19 21  2  0  0  0  0
 19 22  1  0  0  0  0
 20 21  1  0  0  0  0
 20 43  1  0  0  0  0
 23 45  1  0  0  0  0
 23 46  1  0  0  0  0
 23 47  1  0  0  0  0
 24 48  1  0  0  0  0
 25 26  2  0  0  0  0
 25 27  1  0  0  0  0
 26 28  1  0  0  0  0
 26 49  1  0  0  0  0
 27 29  2  0  0  0  0
 27 50  1  0  0  0  0
 28 30  2  0  0  0  0
 29 30  1  0  0  0  0
 29 51  1  0  0  0  0
M  END
> <PUBCHEM_COMPOUND_CID>
11532048

> <PUBCHEM_COMPOUND_CANONICALIZED>
1

> <PUBCHEM_CACTVS_COMPLEXITY>
602

> <PUBCHEM_CACTVS_HBOND_ACCEPTOR>
7

> <PUBCHEM_CACTVS_HBOND_DONOR>
2

> <PUBCHEM_CACTVS_ROTATABLE_BOND>
6

> <PUBCHEM_CACTVS_SUBSKEYS>
AAADceB7sQAEAAAAAAAAAAAAAAAAAWAAAAA8YIAAAAAAAACx9AAAHwIQAAAADC7Bni439vfIFACoAydzdACCiCkxJ6AJ2CG+bpiMbvLF+/uUNChu0BvI6CeY0WMOKAACAgIKAABQAAQEBBQAAAAAAAAAAA==

> <PUBCHEM_IUPAC_OPENEYE_NAME>
(2R)-1-[[4-(3-chloro-4-fluoro-anilino)-7-methoxy-quinazolin-6-yl]methyl]pyrrolidine-2-carboxamide

> <PUBCHEM_IUPAC_CAS_NAME>
(2R)-1-[[4-(3-chloro-4-fluoroanilino)-7-methoxy-6-quinazolinyl]methyl]-2-pyrrolidinecarboxamide

> <PUBCHEM_IUPAC_NAME_MARKUP>
(2<I>R</I>)-1-[[4-(3-chloro-4-fluoroanilino)-7-methoxyquinazolin-6-yl]methyl]pyrrolidine-2-carboxamide

> <PUBCHEM_IUPAC_NAME>
(2R)-1-[[4-(3-chloro-4-fluoroanilino)-7-methoxyquinazolin-6-yl]methyl]pyrrolidine-2-carboxamide

> <PUBCHEM_IUPAC_SYSTEMATIC_NAME>
(2R)-1-[[4-[(3-chloranyl-4-fluoranyl-phenyl)amino]-7-methoxy-quinazolin-6-yl]methyl]pyrrolidine-2-carboxamide

> <PUBCHEM_IUPAC_TRADITIONAL_NAME>
(2R)-1-[[4-(3-chloro-4-fluoro-anilino)-7-methoxy-quinazolin-6-yl]methyl]pyrrolidine-2-carboxamide

> <PUBCHEM_IUPAC_INCHI>
InChI=1S/C21H21ClFN5O2/c1-30-19-9-17-14(7-12(19)10-28-6-2-3-18(28)20(24)29)21(26-11-25-17)27-13-4-5-16(23)15(22)8-13/h4-5,7-9,11,18H,2-3,6,10H2,1H3,(H2,24,29)(H,25,26,27)/t18-/m1/s1

> <PUBCHEM_IUPAC_INCHIKEY>
VFRFZAHRSWUZQO-GOSISDBHSA-N

> <PUBCHEM_XLOGP3_AA>
3.4

> <PUBCHEM_EXACT_MASS>
429.1367808

> <PUBCHEM_MOLECULAR_FORMULA>
C21H21ClFN5O2

> <PUBCHEM_MOLECULAR_WEIGHT>
429.9

> <PUBCHEM_SMILES>
COC1=CC2=C(C=C1CN3CCC[C@@H]3C(=O)N)C(=NC=N2)NC4=CC(=C(C=C4)F)Cl

> <PUBCHEM_OPENEYE_CAN_SMILES>
COC1=CC2=C(C=C1CN3CCCC3C(=O)N)C(=NC=N2)NC4=CC(=C(C=C4)F)Cl

> <PUBCHEM_OPENEYE_ISO_SMILES>
COC1=CC2=C(C=C1CN3CCC[C@@H]3C(=O)N)C(=NC=N2)NC4=CC(=C(C=C4)F)Cl

> <PUBCHEM_CACTVS_TPSA>
93.4

> <PUBCHEM_MONOISOTOPIC_WEIGHT>
429.1367808

> <PUBCHEM_TOTAL_CHARGE>
0

> <PUBCHEM_HEAVY_ATOM_COUNT>
30

> <PUBCHEM_ATOM_DEF_STEREO_COUNT>
1

> <PUBCHEM_ATOM_UDEF_STEREO_COUNT>
0

> <PUBCHEM_BOND_DEF_STEREO_COUNT>
0

> <PUBCHEM_BOND_UDEF_STEREO_COUNT>
0

> <PUBCHEM_ISOTOPIC_ATOM_COUNT>
0

> <PUBCHEM_COMPONENT_COUNT>
1

> <PUBCHEM_CACTVS_TAUTO_COUNT>
-1

> <PUBCHEM_COORDINATE_TYPE>
1
5
255

> <PUBCHEM_BONDANNOTATIONS>
10  15  5
16  17  8
16  18  8
17  20  8
18  19  8
19  21  8
19  22  8
20  21  8
25  26  8
25  27  8
26  28  8
27  29  8
28  30  8
29  30  8
7  21  8
7  24  8
9  22  8
9  24  8

$$$$
