136027078
  -OEChem-03202506452D

 31 34  0     0  0  0  0  0  0999 V2000
    2.0000    2.5000    0.0000 I   0  0  0  0  0  0  0  0  0  0  0  0
    7.2764   -2.3047    0.0000 S   0  0  0  0  0  0  0  0  0  0  0  0
    5.4641    0.5000    0.0000 O   0  0  0  0  0  0  0  0  0  0  0  0
   10.3988   -2.0000    0.0000 O   0  0  0  0  0  0  0  0  0  0  0  0
   11.2078   -0.4122    0.0000 O   0  0  0  0  0  0  0  0  0  0  0  0
    4.5981   -2.0000    0.0000 N   0  0  0  0  0  0  0  0  0  0  0  0
    9.4477   -0.6910    0.0000 N   0  0  0  0  0  0  0  0  0  0  0  0
    9.4477   -2.3090    0.0000 N   0  0  0  0  0  0  0  0  0  0  0  0
    6.3301   -1.0000    0.0000 C   0  0  0  0  0  0  0  0  0  0  0  0
    6.3301   -2.0000    0.0000 C   0  0  0  0  0  0  0  0  0  0  0  0
    7.8600   -1.5000    0.0000 C   0  0  0  0  0  0  0  0  0  0  0  0
    7.2764   -0.6953    0.0000 C   0  0  0  0  0  0  0  0  0  0  0  0
    5.4641   -0.5000    0.0000 C   0  0  0  0  0  0  0  0  0  0  0  0
    8.8600   -1.5000    0.0000 C   0  0  0  0  0  0  0  0  0  0  0  0
    5.4641   -2.5000    0.0000 C   0  0  0  0  0  0  0  0  0  0  0  0
    4.5981   -1.0000    0.0000 C   0  0  0  0  0  0  0  0  0  0  0  0
    4.5981    1.0000    0.0000 C   0  0  0  0  0  0  0  0  0  0  0  0
    4.5981    2.0000    0.0000 C   0  0  0  0  0  0  0  0  0  0  0  0
    3.7320    0.5000    0.0000 C   0  0  0  0  0  0  0  0  0  0  0  0
   10.3988   -1.0000    0.0000 C   0  0  0  0  0  0  0  0  0  0  0  0
    3.7320    2.5000    0.0000 C   0  0  0  0  0  0  0  0  0  0  0  0
    2.8660    1.0000    0.0000 C   0  0  0  0  0  0  0  0  0  0  0  0
    2.8660    2.0000    0.0000 C   0  0  0  0  0  0  0  0  0  0  0  0
    7.4690   -0.1059    0.0000 H   0  0  0  0  0  0  0  0  0  0  0  0
    5.4641   -3.1200    0.0000 H   0  0  0  0  0  0  0  0  0  0  0  0
    4.0611   -0.6900    0.0000 H   0  0  0  0  0  0  0  0  0  0  0  0
    9.2562   -0.1013    0.0000 H   0  0  0  0  0  0  0  0  0  0  0  0
    5.1350    2.3100    0.0000 H   0  0  0  0  0  0  0  0  0  0  0  0
    3.7320   -0.1200    0.0000 H   0  0  0  0  0  0  0  0  0  0  0  0
    3.7320    3.1200    0.0000 H   0  0  0  0  0  0  0  0  0  0  0  0
    2.3291    0.6900    0.0000 H   0  0  0  0  0  0  0  0  0  0  0  0
  1 23  1  0  0  0  0
  2 10  1  0  0  0  0
  2 11  1  0  0  0  0
  3 13  1  0  0  0  0
  3 17  1  0  0  0  0
  4  8  1  0  0  0  0
  4 20  1  0  0  0  0
  5 20  2  0  0  0  0
  6 15  2  0  0  0  0
  6 16  1  0  0  0  0
  7 14  1  0  0  0  0
  7 20  1  0  0  0  0
  7 27  1  0  0  0  0
  8 14  2  0  0  0  0
  9 10  2  0  0  0  0
  9 12  1  0  0  0  0
  9 13  1  0  0  0  0
 10 15  1  0  0  0  0
 11 12  2  0  0  0  0
 11 14  1  0  0  0  0
 12 24  1  0  0  0  0
 13 16  2  0  0  0  0
 15 25  1  0  0  0  0
 16 26  1  0  0  0  0
 17 18  2  0  0  0  0
 17 19  1  0  0  0  0
 18 21  1  0  0  0  0
 18 28  1  0  0  0  0
 19 22  2  0  0  0  0
 19 29  1  0  0  0  0
 21 23  2  0  0  0  0
 21 30  1  0  0  0  0
 22 23  1  0  0  0  0
 22 31  1  0  0  0  0
M  END
> <PUBCHEM_COMPOUND_CID>
136027078

> <PUBCHEM_COMPOUND_CANONICALIZED>
1

> <PUBCHEM_CACTVS_COMPLEXITY>
498

> <PUBCHEM_CACTVS_HBOND_ACCEPTOR>
6

> <PUBCHEM_CACTVS_HBOND_DONOR>
1

> <PUBCHEM_CACTVS_ROTATABLE_BOND>
3

> <PUBCHEM_CACTVS_SUBSKEYS>
AAADccBzMABAAgAAAAAAAAAAAAAAASIAAAA8QAAAAAAAAFgB/AAAHgQ0AAAADATD2gQ9j9LYFAisAjJnfASDqKAxaDBJ2DwvTJkOJuLksZuHOCjkxBH46AewUAIOAAAAAAAAAAAAAAAAAAAAAAAAAAAAAA==

> <PUBCHEM_IUPAC_OPENEYE_NAME>
3-[4-(4-iodophenoxy)thieno[2,3-c]pyridin-2-yl]-4H-1,2,4-oxadiazol-5-one

> <PUBCHEM_IUPAC_CAS_NAME>
3-[4-(4-iodophenoxy)-2-thieno[2,3-c]pyridinyl]-4H-1,2,4-oxadiazol-5-one

> <PUBCHEM_IUPAC_NAME_MARKUP>
3-[4-(4-iodophenoxy)thieno[2,3-c]pyridin-2-yl]-4<I>H</I>-1,2,4-oxadiazol-5-one

> <PUBCHEM_IUPAC_NAME>
3-[4-(4-iodophenoxy)thieno[2,3-c]pyridin-2-yl]-4H-1,2,4-oxadiazol-5-one

> <PUBCHEM_IUPAC_SYSTEMATIC_NAME>
3-[4-(4-iodanylphenoxy)thieno[2,3-c]pyridin-2-yl]-4H-1,2,4-oxadiazol-5-one

> <PUBCHEM_IUPAC_TRADITIONAL_NAME>
3-[4-(4-iodophenoxy)thieno[2,3-c]pyridin-2-yl]-4H-1,2,4-oxadiazol-5-one

> <PUBCHEM_IUPAC_INCHI>
InChI=1S/C15H8IN3O3S/c16-8-1-3-9(4-2-8)21-11-6-17-7-13-10(11)5-12(23-13)14-18-15(20)22-19-14/h1-7H,(H,18,19,20)

> <PUBCHEM_IUPAC_INCHIKEY>
KYACBMRLQMEIAI-UHFFFAOYSA-N

> <PUBCHEM_XLOGP3_AA>
3.9

> <PUBCHEM_EXACT_MASS>
436.93311

> <PUBCHEM_MOLECULAR_FORMULA>
C15H8IN3O3S

> <PUBCHEM_MOLECULAR_WEIGHT>
437.2

> <PUBCHEM_SMILES>
C1=CC(=CC=C1OC2=CN=CC3=C2C=C(S3)C4=NOC(=O)N4)I

> <PUBCHEM_OPENEYE_CAN_SMILES>
C1=CC(=CC=C1OC2=CN=CC3=C2C=C(S3)C4=NOC(=O)N4)I

> <PUBCHEM_OPENEYE_ISO_SMILES>
C1=CC(=CC=C1OC2=CN=CC3=C2C=C(S3)C4=NOC(=O)N4)I

> <PUBCHEM_CACTVS_TPSA>
101

> <PUBCHEM_MONOISOTOPIC_WEIGHT>
436.93311

> <PUBCHEM_TOTAL_CHARGE>
0

> <PUBCHEM_HEAVY_ATOM_COUNT>
23

> <PUBCHEM_ATOM_DEF_STEREO_COUNT>
0

> <PUBCHEM_ATOM_UDEF_STEREO_COUNT>
0

> <PUBCHEM_BOND_DEF_STEREO_COUNT>
0

> <PUBCHEM_BOND_UDEF_STEREO_COUNT>
0

> <PUBCHEM_ISOTOPIC_ATOM_COUNT>
0

> <PUBCHEM_COMPONENT_COUNT>
1

> <PUBCHEM_CACTVS_TAUTO_COUNT>
-1

> <PUBCHEM_COORDINATE_TYPE>
1
5
255

> <PUBCHEM_BONDANNOTATIONS>
10  15  8
11  12  8
13  16  8
17  18  8
17  19  8
18  21  8
19  22  8
2  10  8
2  11  8
21  23  8
22  23  8
4  20  8
4  8  8
6  15  8
6  16  8
7  14  8
7  20  8
8  14  8
9  10  8
9  12  8
9  13  8

$$$$
