21362756
  -OEChem-03202505262D

 29 31  0     0  0  0  0  0  0999 V2000
    7.3991   -2.3272    0.0000 Cl  0  0  0  0  0  0  0  0  0  0  0  0
    7.6255    1.3516    0.0000 S   0  0  0  0  0  0  0  0  0  0  0  0
    7.4062    2.3272    0.0000 O   0  0  0  0  0  0  0  0  0  0  0  0
    7.8447    0.3759    0.0000 O   0  0  0  0  0  0  0  0  0  0  0  0
    4.5274    0.5333    0.0000 N   0  0  0  0  0  0  0  0  0  0  0  0
    6.6498    1.1324    0.0000 N   0  0  0  0  0  0  0  0  0  0  0  0
    2.0000   -0.5909    0.0000 N   0  0  0  0  0  0  0  0  0  0  0  0
    5.3364   -0.0544    0.0000 C   0  0  0  0  0  0  0  0  0  0  0  0
    5.0274   -1.0055    0.0000 C   0  0  0  0  0  0  0  0  0  0  0  0
    4.0274   -1.0055    0.0000 C   0  0  0  0  0  0  0  0  0  0  0  0
    6.3518    0.1778    0.0000 C   0  0  0  0  0  0  0  0  0  0  0  0
    3.7183   -0.0544    0.0000 C   0  0  0  0  0  0  0  0  0  0  0  0
    5.7123   -1.7902    0.0000 C   0  0  0  0  0  0  0  0  0  0  0  0
    7.0547   -0.5909    0.0000 C   0  0  0  0  0  0  0  0  0  0  0  0
    6.7328   -1.5815    0.0000 C   0  0  0  0  0  0  0  0  0  0  0  0
    3.3424   -1.7902    0.0000 C   0  0  0  0  0  0  0  0  0  0  0  0
    2.7029    0.1778    0.0000 C   0  0  0  0  0  0  0  0  0  0  0  0
    2.3219   -1.5815    0.0000 C   0  0  0  0  0  0  0  0  0  0  0  0
    8.6011    1.5708    0.0000 C   0  0  0  0  0  0  0  0  0  0  0  0
    4.5274    1.1533    0.0000 H   0  0  0  0  0  0  0  0  0  0  0  0
    5.5139   -2.3776    0.0000 H   0  0  0  0  0  0  0  0  0  0  0  0
    7.6607   -0.4596    0.0000 H   0  0  0  0  0  0  0  0  0  0  0  0
    6.2296    1.5883    0.0000 H   0  0  0  0  0  0  0  0  0  0  0  0
    3.5408   -2.3776    0.0000 H   0  0  0  0  0  0  0  0  0  0  0  0
    2.5182    0.7696    0.0000 H   0  0  0  0  0  0  0  0  0  0  0  0
    1.9088   -2.0439    0.0000 H   0  0  0  0  0  0  0  0  0  0  0  0
    8.7370    0.9659    0.0000 H   0  0  0  0  0  0  0  0  0  0  0  0
    9.2061    1.7067    0.0000 H   0  0  0  0  0  0  0  0  0  0  0  0
    8.4652    2.1757    0.0000 H   0  0  0  0  0  0  0  0  0  0  0  0
  1 15  1  0  0  0  0
  2  3  2  0  0  0  0
  2  4  2  0  0  0  0
  2  6  1  0  0  0  0
  2 19  1  0  0  0  0
  5  8  1  0  0  0  0
  5 12  1  0  0  0  0
  5 20  1  0  0  0  0
  6 11  1  0  0  0  0
  6 23  1  0  0  0  0
  7 17  2  0  0  0  0
  7 18  1  0  0  0  0
  8  9  2  0  0  0  0
  8 11  1  0  0  0  0
  9 10  1  0  0  0  0
  9 13  1  0  0  0  0
 10 12  2  0  0  0  0
 10 16  1  0  0  0  0
 11 14  2  0  0  0  0
 12 17  1  0  0  0  0
 13 15  2  0  0  0  0
 13 21  1  0  0  0  0
 14 15  1  0  0  0  0
 14 22  1  0  0  0  0
 16 18  2  0  0  0  0
 16 24  1  0  0  0  0
 17 25  1  0  0  0  0
 18 26  1  0  0  0  0
 19 27  1  0  0  0  0
 19 28  1  0  0  0  0
 19 29  1  0  0  0  0
M  END
> <PUBCHEM_COMPOUND_CID>
21362756

> <PUBCHEM_COMPOUND_CANONICALIZED>
1

> <PUBCHEM_CACTVS_COMPLEXITY>
439

> <PUBCHEM_CACTVS_HBOND_ACCEPTOR>
4

> <PUBCHEM_CACTVS_HBOND_DONOR>
2

> <PUBCHEM_CACTVS_ROTATABLE_BOND>
2

> <PUBCHEM_CACTVS_SUBSKEYS>
AAADccBzMABEAAAAAAAAAAAAAAAAAWAAAAA8QAAAAAAAAFgB/gAAHAYQQAAADArBHiS+wPLJkAKgAzRnRHCCgCQxFyAI2SA4dpgIYOLBk5GUIAhgkADIyAcQgMAOgABAYAICACAAAIDABAQAQAAAAAAAAA==

> <PUBCHEM_IUPAC_OPENEYE_NAME>
N-(6-chloro-9H-pyrido[3,4-b]indol-8-yl)methanesulfonamide

> <PUBCHEM_IUPAC_CAS_NAME>
N-(6-chloro-9H-pyrido[3,4-b]indol-8-yl)methanesulfonamide

> <PUBCHEM_IUPAC_NAME_MARKUP>
<I>N</I>-(6-chloro-9<I>H</I>-pyrido[3,4-b]indol-8-yl)methanesulfonamide

> <PUBCHEM_IUPAC_NAME>
N-(6-chloro-9H-pyrido[3,4-b]indol-8-yl)methanesulfonamide

> <PUBCHEM_IUPAC_SYSTEMATIC_NAME>
N-(6-chloranyl-9H-pyrido[3,4-b]indol-8-yl)methanesulfonamide

> <PUBCHEM_IUPAC_TRADITIONAL_NAME>
N-(6-chloro-9H-beta-carbolin-8-yl)methanesulfonamide

> <PUBCHEM_IUPAC_INCHI>
InChI=1S/C12H10ClN3O2S/c1-19(17,18)16-10-5-7(13)4-9-8-2-3-14-6-11(8)15-12(9)10/h2-6,15-16H,1H3

> <PUBCHEM_IUPAC_INCHIKEY>
YKCBNFRVVULBIA-UHFFFAOYSA-N

> <PUBCHEM_XLOGP3_AA>
1.9

> <PUBCHEM_EXACT_MASS>
295.0182254

> <PUBCHEM_MOLECULAR_FORMULA>
C12H10ClN3O2S

> <PUBCHEM_MOLECULAR_WEIGHT>
295.75

> <PUBCHEM_SMILES>
CS(=O)(=O)NC1=CC(=CC2=C1NC3=C2C=CN=C3)Cl

> <PUBCHEM_OPENEYE_CAN_SMILES>
CS(=O)(=O)NC1=CC(=CC2=C1NC3=C2C=CN=C3)Cl

> <PUBCHEM_OPENEYE_ISO_SMILES>
CS(=O)(=O)NC1=CC(=CC2=C1NC3=C2C=CN=C3)Cl

> <PUBCHEM_CACTVS_TPSA>
83.2

> <PUBCHEM_MONOISOTOPIC_WEIGHT>
295.0182254

> <PUBCHEM_TOTAL_CHARGE>
0

> <PUBCHEM_HEAVY_ATOM_COUNT>
19

> <PUBCHEM_ATOM_DEF_STEREO_COUNT>
0

> <PUBCHEM_ATOM_UDEF_STEREO_COUNT>
0

> <PUBCHEM_BOND_DEF_STEREO_COUNT>
0

> <PUBCHEM_BOND_UDEF_STEREO_COUNT>
0

> <PUBCHEM_ISOTOPIC_ATOM_COUNT>
0

> <PUBCHEM_COMPONENT_COUNT>
1

> <PUBCHEM_CACTVS_TAUTO_COUNT>
-1

> <PUBCHEM_COORDINATE_TYPE>
1
5
255

> <PUBCHEM_BONDANNOTATIONS>
10  12  8
10  16  8
11  14  8
12  17  8
13  15  8
14  15  8
16  18  8
5  12  8
5  8  8
7  17  8
7  18  8
8  11  8
8  9  8
9  10  8
9  13  8

$$$$
