24858859
  -OEChem-03202501552D

 34 36  0     0  0  0  0  0  0999 V2000
    3.3660   -0.3988    0.0000 F   0  0  0  0  0  0  0  0  0  0  0  0
    2.0000   -0.7649    0.0000 F   0  0  0  0  0  0  0  0  0  0  0  0
    2.3660   -2.1309    0.0000 F   0  0  0  0  0  0  0  0  0  0  0  0
    8.0784   -0.2102    0.0000 O   0  0  0  0  0  0  0  0  0  0  0  0
    6.3465   -0.2303    0.0000 N   0  0  0  0  0  0  0  0  0  0  0  0
    6.3580   -3.2995    0.0000 N   0  0  0  0  0  0  0  0  0  0  0  0
    7.1951    1.2796    0.0000 N   0  0  0  0  0  0  0  0  0  0  0  0
    8.0437    2.7896    0.0000 N   0  0  0  0  0  0  0  0  0  0  0  0
    9.7872    1.8096    0.0000 N   0  0  0  0  0  0  0  0  0  0  0  0
    5.4641   -1.7649    0.0000 C   0  0  0  0  0  0  0  0  0  0  0  0
    5.4641   -2.7649    0.0000 C   0  0  0  0  0  0  0  0  0  0  0  0
    6.3580   -1.2302    0.0000 C   0  0  0  0  0  0  0  0  0  0  0  0
    4.5981   -1.2649    0.0000 C   0  0  0  0  0  0  0  0  0  0  0  0
    3.7320   -1.7649    0.0000 C   0  0  0  0  0  0  0  0  0  0  0  0
    4.5981   -3.2649    0.0000 C   0  0  0  0  0  0  0  0  0  0  0  0
    3.7320   -2.7649    0.0000 C   0  0  0  0  0  0  0  0  0  0  0  0
    7.2641   -1.7441    0.0000 C   0  0  0  0  0  0  0  0  0  0  0  0
    2.8660   -1.2649    0.0000 C   0  0  0  0  0  0  0  0  0  0  0  0
    7.2641   -2.7857    0.0000 C   0  0  0  0  0  0  0  0  0  0  0  0
    7.2067    0.2797    0.0000 C   0  0  0  0  0  0  0  0  0  0  0  0
    8.0553    1.7896    0.0000 C   0  0  0  0  0  0  0  0  0  0  0  0
    8.9270    1.2997    0.0000 C   0  0  0  0  0  0  0  0  0  0  0  0
    8.9039    3.2995    0.0000 C   0  0  0  0  0  0  0  0  0  0  0  0
    9.7757    2.8096    0.0000 C   0  0  0  0  0  0  0  0  0  0  0  0
    4.5981   -0.6449    0.0000 H   0  0  0  0  0  0  0  0  0  0  0  0
    4.5981   -3.8849    0.0000 H   0  0  0  0  0  0  0  0  0  0  0  0
    3.1951   -3.0749    0.0000 H   0  0  0  0  0  0  0  0  0  0  0  0
    7.7998   -1.4320    0.0000 H   0  0  0  0  0  0  0  0  0  0  0  0
    5.8060    0.0735    0.0000 H   0  0  0  0  0  0  0  0  0  0  0  0
    7.7998   -3.0978    0.0000 H   0  0  0  0  0  0  0  0  0  0  0  0
    6.6546    1.5834    0.0000 H   0  0  0  0  0  0  0  0  0  0  0  0
    8.9342    0.6797    0.0000 H   0  0  0  0  0  0  0  0  0  0  0  0
    8.8967    3.9195    0.0000 H   0  0  0  0  0  0  0  0  0  0  0  0
   10.3090    3.1258    0.0000 H   0  0  0  0  0  0  0  0  0  0  0  0
  1 18  1  0  0  0  0
  2 18  1  0  0  0  0
  3 18  1  0  0  0  0
  4 20  2  0  0  0  0
  5 12  1  0  0  0  0
  5 20  1  0  0  0  0
  5 29  1  0  0  0  0
  6 11  2  0  0  0  0
  6 19  1  0  0  0  0
  7 20  1  0  0  0  0
  7 21  1  0  0  0  0
  7 31  1  0  0  0  0
  8 21  2  0  0  0  0
  8 23  1  0  0  0  0
  9 22  2  0  0  0  0
  9 24  1  0  0  0  0
 10 11  1  0  0  0  0
 10 12  2  0  0  0  0
 10 13  1  0  0  0  0
 11 15  1  0  0  0  0
 12 17  1  0  0  0  0
 13 14  2  0  0  0  0
 13 25  1  0  0  0  0
 14 16  1  0  0  0  0
 14 18  1  0  0  0  0
 15 16  2  0  0  0  0
 15 26  1  0  0  0  0
 16 27  1  0  0  0  0
 17 19  2  0  0  0  0
 17 28  1  0  0  0  0
 19 30  1  0  0  0  0
 21 22  1  0  0  0  0
 22 32  1  0  0  0  0
 23 24  2  0  0  0  0
 23 33  1  0  0  0  0
 24 34  1  0  0  0  0
M  END
> <PUBCHEM_COMPOUND_CID>
24858859

> <PUBCHEM_COMPOUND_CANONICALIZED>
1

> <PUBCHEM_CACTVS_COMPLEXITY>
447

> <PUBCHEM_CACTVS_HBOND_ACCEPTOR>
7

> <PUBCHEM_CACTVS_HBOND_DONOR>
2

> <PUBCHEM_CACTVS_ROTATABLE_BOND>
2

> <PUBCHEM_CACTVS_SUBSKEYS>
AAADccBzoYAAAAAAAAAAAAAAAAAAAAAAAAA8WIAAAAAAAACx/AAAHwAQAAAADAjBHhQ98PLIEACoAzZndACCgC0xEiAJ2CA4dJiIYOLA0dGUJAholQLIyCcQgMAOCAACAAACAAAQAAQAAAQAAAAAAAAAAA==

> <PUBCHEM_IUPAC_OPENEYE_NAME>
1-pyrazin-2-yl-3-[6-(trifluoromethyl)-4-quinolyl]urea

> <PUBCHEM_IUPAC_CAS_NAME>
1-(2-pyrazinyl)-3-[6-(trifluoromethyl)-4-quinolinyl]urea

> <PUBCHEM_IUPAC_NAME_MARKUP>
1-pyrazin-2-yl-3-[6-(trifluoromethyl)quinolin-4-yl]urea

> <PUBCHEM_IUPAC_NAME>
1-pyrazin-2-yl-3-[6-(trifluoromethyl)quinolin-4-yl]urea

> <PUBCHEM_IUPAC_SYSTEMATIC_NAME>
1-pyrazin-2-yl-3-[6-(trifluoromethyl)quinolin-4-yl]urea

> <PUBCHEM_IUPAC_TRADITIONAL_NAME>
1-pyrazin-2-yl-3-[6-(trifluoromethyl)-4-quinolyl]urea

> <PUBCHEM_IUPAC_INCHI>
InChI=1S/C15H10F3N5O/c16-15(17,18)9-1-2-11-10(7-9)12(3-4-20-11)22-14(24)23-13-8-19-5-6-21-13/h1-8H,(H2,20,21,22,23,24)

> <PUBCHEM_IUPAC_INCHIKEY>
GHAZVJQMLWOQLP-UHFFFAOYSA-N

> <PUBCHEM_XLOGP3_AA>
1.8

> <PUBCHEM_EXACT_MASS>
333.08374445

> <PUBCHEM_MOLECULAR_FORMULA>
C15H10F3N5O

> <PUBCHEM_MOLECULAR_WEIGHT>
333.27

> <PUBCHEM_SMILES>
C1=CC2=NC=CC(=C2C=C1C(F)(F)F)NC(=O)NC3=NC=CN=C3

> <PUBCHEM_OPENEYE_CAN_SMILES>
C1=CC2=NC=CC(=C2C=C1C(F)(F)F)NC(=O)NC3=NC=CN=C3

> <PUBCHEM_OPENEYE_ISO_SMILES>
C1=CC2=NC=CC(=C2C=C1C(F)(F)F)NC(=O)NC3=NC=CN=C3

> <PUBCHEM_CACTVS_TPSA>
79.8

> <PUBCHEM_MONOISOTOPIC_WEIGHT>
333.08374445

> <PUBCHEM_TOTAL_CHARGE>
0

> <PUBCHEM_HEAVY_ATOM_COUNT>
24

> <PUBCHEM_ATOM_DEF_STEREO_COUNT>
0

> <PUBCHEM_ATOM_UDEF_STEREO_COUNT>
0

> <PUBCHEM_BOND_DEF_STEREO_COUNT>
0

> <PUBCHEM_BOND_UDEF_STEREO_COUNT>
0

> <PUBCHEM_ISOTOPIC_ATOM_COUNT>
0

> <PUBCHEM_COMPONENT_COUNT>
1

> <PUBCHEM_CACTVS_TAUTO_COUNT>
-1

> <PUBCHEM_COORDINATE_TYPE>
1
5
255

> <PUBCHEM_BONDANNOTATIONS>
10  11  8
10  12  8
10  13  8
11  15  8
12  17  8
13  14  8
14  16  8
15  16  8
17  19  8
21  22  8
23  24  8
6  11  8
6  19  8
8  21  8
8  23  8
9  22  8
9  24  8

$$$$
