49830438
  -OEChem-03202501282D

 61 65  0     1  0  0  0  0  0999 V2000
    7.2566   -1.4428    0.0000 O   0  0  0  0  0  0  0  0  0  0  0  0
    5.8279    5.3364    0.0000 O   0  0  0  0  0  0  0  0  0  0  0  0
    4.6783   -5.3658    0.0000 N   0  0  0  0  0  0  0  0  0  0  0  0
    6.6353   -3.3439    0.0000 N   0  0  0  0  0  0  0  0  0  0  0  0
    8.8564    0.6644    0.0000 N   0  0  0  0  0  0  0  0  0  0  0  0
    4.5387    4.1797    0.0000 N   0  0  0  0  0  0  0  0  0  0  0  0
    4.9889   -2.8058    0.0000 C   0  0  0  0  0  0  0  0  0  0  0  0
    5.9674   -2.5996    0.0000 C   0  0  3  0  0  0  0  0  0  0  0  0
    4.6783   -3.7563    0.0000 C   0  0  0  0  0  0  0  0  0  0  0  0
    3.7320   -4.0610    0.0000 C   0  0  0  0  0  0  0  0  0  0  0  0
    6.2781   -1.6491    0.0000 C   0  0  0  0  0  0  0  0  0  0  0  0
    3.7320   -5.0610    0.0000 C   0  0  0  0  0  0  0  0  0  0  0  0
    5.2619   -4.5610    0.0000 C   0  0  0  0  0  0  0  0  0  0  0  0
    2.8660   -3.5610    0.0000 C   0  0  0  0  0  0  0  0  0  0  0  0
    2.8660   -5.5610    0.0000 C   0  0  0  0  0  0  0  0  0  0  0  0
    2.0000   -4.0610    0.0000 C   0  0  0  0  0  0  0  0  0  0  0  0
    2.0000   -5.0610    0.0000 C   0  0  0  0  0  0  0  0  0  0  0  0
    7.5673   -0.4923    0.0000 C   0  0  0  0  0  0  0  0  0  0  0  0
    7.2101    1.2025    0.0000 C   0  0  0  0  0  0  0  0  0  0  0  0
    6.5422    1.9468    0.0000 C   0  0  0  0  0  0  0  0  0  0  0  0
    6.8994    0.2520    0.0000 C   0  0  0  0  0  0  0  0  0  0  0  0
    6.1851    3.6416    0.0000 C   0  0  0  0  0  0  0  0  0  0  0  0
    6.8529    2.8973    0.0000 C   0  0  0  0  0  0  0  0  0  0  0  0
    8.5458   -0.2861    0.0000 C   0  0  0  0  0  0  0  0  0  0  0  0
    5.5637    1.7406    0.0000 C   0  0  0  0  0  0  0  0  0  0  0  0
    5.2066    3.4354    0.0000 C   0  0  0  0  0  0  0  0  0  0  0  0
    8.1886    1.4087    0.0000 C   0  0  0  0  0  0  0  0  0  0  0  0
    4.8959    2.4849    0.0000 C   0  0  0  0  0  0  0  0  0  0  0  0
    6.4957    4.5922    0.0000 C   0  0  0  0  0  0  0  0  0  0  0  0
    7.4742    4.7984    0.0000 C   0  0  0  0  0  0  0  0  0  0  0  0
    7.7849    5.7489    0.0000 C   0  0  0  0  0  0  0  0  0  0  0  0
    8.1421    4.0541    0.0000 C   0  0  0  0  0  0  0  0  0  0  0  0
    8.7634    5.9551    0.0000 C   0  0  0  0  0  0  0  0  0  0  0  0
    9.1206    4.2603    0.0000 C   0  0  0  0  0  0  0  0  0  0  0  0
    9.4312    5.2108    0.0000 C   0  0  0  0  0  0  0  0  0  0  0  0
    4.9684   -2.1861    0.0000 H   0  0  0  0  0  0  0  0  0  0  0  0
    4.3751   -2.7184    0.0000 H   0  0  0  0  0  0  0  0  0  0  0  0
    5.7748   -3.1889    0.0000 H   0  0  0  0  0  0  0  0  0  0  0  0
    6.2575   -1.0294    0.0000 H   0  0  0  0  0  0  0  0  0  0  0  0
    5.6643   -1.5617    0.0000 H   0  0  0  0  0  0  0  0  0  0  0  0
    5.8819   -4.5610    0.0000 H   0  0  0  0  0  0  0  0  0  0  0  0
    4.8709   -5.9551    0.0000 H   0  0  0  0  0  0  0  0  0  0  0  0
    2.8660   -2.9410    0.0000 H   0  0  0  0  0  0  0  0  0  0  0  0
    7.2420   -3.2160    0.0000 H   0  0  0  0  0  0  0  0  0  0  0  0
    6.4427   -3.9332    0.0000 H   0  0  0  0  0  0  0  0  0  0  0  0
    2.8660   -6.1810    0.0000 H   0  0  0  0  0  0  0  0  0  0  0  0
    1.4631   -3.7510    0.0000 H   0  0  0  0  0  0  0  0  0  0  0  0
    1.4631   -5.3710    0.0000 H   0  0  0  0  0  0  0  0  0  0  0  0
    6.2928    0.1241    0.0000 H   0  0  0  0  0  0  0  0  0  0  0  0
    7.4596    3.0252    0.0000 H   0  0  0  0  0  0  0  0  0  0  0  0
    8.9598   -0.7476    0.0000 H   0  0  0  0  0  0  0  0  0  0  0  0
    5.3711    1.1513    0.0000 H   0  0  0  0  0  0  0  0  0  0  0  0
    8.3812    1.9980    0.0000 H   0  0  0  0  0  0  0  0  0  0  0  0
    4.2892    2.3570    0.0000 H   0  0  0  0  0  0  0  0  0  0  0  0
    3.9320    4.0518    0.0000 H   0  0  0  0  0  0  0  0  0  0  0  0
    4.7313    4.7690    0.0000 H   0  0  0  0  0  0  0  0  0  0  0  0
    7.3708    6.2104    0.0000 H   0  0  0  0  0  0  0  0  0  0  0  0
    7.9495    3.4647    0.0000 H   0  0  0  0  0  0  0  0  0  0  0  0
    8.9560    6.5444    0.0000 H   0  0  0  0  0  0  0  0  0  0  0  0
    9.5346    3.7988    0.0000 H   0  0  0  0  0  0  0  0  0  0  0  0
   10.0379    5.3387    0.0000 H   0  0  0  0  0  0  0  0  0  0  0  0
  1 11  1  0  0  0  0
  1 18  1  0  0  0  0
  2 29  2  0  0  0  0
  3 12  1  0  0  0  0
  3 13  1  0  0  0  0
  3 42  1  0  0  0  0
  4  8  1  0  0  0  0
  4 44  1  0  0  0  0
  4 45  1  0  0  0  0
  5 24  1  0  0  0  0
  5 27  2  0  0  0  0
  6 26  1  0  0  0  0
  6 55  1  0  0  0  0
  6 56  1  0  0  0  0
  7  8  1  0  0  0  0
  7  9  1  0  0  0  0
  7 36  1  0  0  0  0
  7 37  1  0  0  0  0
  8 11  1  0  0  0  0
  8 38  1  0  0  0  0
  9 10  1  0  0  0  0
  9 13  2  0  0  0  0
 10 12  1  0  0  0  0
 10 14  2  0  0  0  0
 11 39  1  0  0  0  0
 11 40  1  0  0  0  0
 12 15  2  0  0  0  0
 13 41  1  0  0  0  0
 14 16  1  0  0  0  0
 14 43  1  0  0  0  0
 15 17  1  0  0  0  0
 15 46  1  0  0  0  0
 16 17  2  0  0  0  0
 16 47  1  0  0  0  0
 17 48  1  0  0  0  0
 18 21  1  0  0  0  0
 18 24  2  0  0  0  0
 19 20  1  0  0  0  0
 19 21  2  0  0  0  0
 19 27  1  0  0  0  0
 20 23  2  0  0  0  0
 20 25  1  0  0  0  0
 21 49  1  0  0  0  0
 22 23  1  0  0  0  0
 22 26  2  0  0  0  0
 22 29  1  0  0  0  0
 23 50  1  0  0  0  0
 24 51  1  0  0  0  0
 25 28  2  0  0  0  0
 25 52  1  0  0  0  0
 26 28  1  0  0  0  0
 27 53  1  0  0  0  0
 28 54  1  0  0  0  0
 29 30  1  0  0  0  0
 30 31  2  0  0  0  0
 30 32  1  0  0  0  0
 31 33  1  0  0  0  0
 31 57  1  0  0  0  0
 32 34  2  0  0  0  0
 32 58  1  0  0  0  0
 33 35  2  0  0  0  0
 33 59  1  0  0  0  0
 34 35  1  0  0  0  0
 34 60  1  0  0  0  0
 35 61  1  0  0  0  0
M  END
> <PUBCHEM_COMPOUND_CID>
49830438

> <PUBCHEM_COMPOUND_CANONICALIZED>
1

> <PUBCHEM_CACTVS_COMPLEXITY>
684

> <PUBCHEM_CACTVS_HBOND_ACCEPTOR>
5

> <PUBCHEM_CACTVS_HBOND_DONOR>
3

> <PUBCHEM_CACTVS_ROTATABLE_BOND>
8

> <PUBCHEM_CACTVS_SUBSKEYS>
AAADceB7sAAAAAAAAAAAAAAAAAAAAWAAAAA8YMEAAAAAAFgB/AAAHgAQAAAADCzhngY8xvLJlACoA7R3RASCiCA1YiAI2aE/bNgOJvrEtZuHOajk0BHY6ce42PKOiAACAAACAAAQAAQAAAQAAAAAAAAAAA==

> <PUBCHEM_IUPAC_OPENEYE_NAME>
[2-amino-5-[5-[2-amino-3-(1H-indol-3-yl)propoxy]-3-pyridyl]phenyl]-phenyl-methanone

> <PUBCHEM_IUPAC_CAS_NAME>
[2-amino-5-[5-[2-amino-3-(1H-indol-3-yl)propoxy]-3-pyridinyl]phenyl]-phenylmethanone

> <PUBCHEM_IUPAC_NAME_MARKUP>
[2-amino-5-[5-[2-amino-3-(1<I>H</I>-indol-3-yl)propoxy]pyridin-3-yl]phenyl]-phenylmethanone

> <PUBCHEM_IUPAC_NAME>
[2-amino-5-[5-[2-amino-3-(1H-indol-3-yl)propoxy]pyridin-3-yl]phenyl]-phenylmethanone

> <PUBCHEM_IUPAC_SYSTEMATIC_NAME>
[2-azanyl-5-[5-[2-azanyl-3-(1H-indol-3-yl)propoxy]pyridin-3-yl]phenyl]-phenyl-methanone

> <PUBCHEM_IUPAC_TRADITIONAL_NAME>
[2-amino-5-[5-[2-amino-3-(1H-indol-3-yl)propoxy]-3-pyridyl]phenyl]-phenyl-methanone

> <PUBCHEM_IUPAC_INCHI>
InChI=1S/C29H26N4O2/c30-23(12-22-16-33-28-9-5-4-8-25(22)28)18-35-24-13-21(15-32-17-24)20-10-11-27(31)26(14-20)29(34)19-6-2-1-3-7-19/h1-11,13-17,23,33H,12,18,30-31H2

> <PUBCHEM_IUPAC_INCHIKEY>
NSHLUNUGZXJUID-UHFFFAOYSA-N

> <PUBCHEM_XLOGP3_AA>
4.9

> <PUBCHEM_EXACT_MASS>
462.20557608

> <PUBCHEM_MOLECULAR_FORMULA>
C29H26N4O2

> <PUBCHEM_MOLECULAR_WEIGHT>
462.5

> <PUBCHEM_SMILES>
C1=CC=C(C=C1)C(=O)C2=C(C=CC(=C2)C3=CC(=CN=C3)OCC(CC4=CNC5=CC=CC=C54)N)N

> <PUBCHEM_OPENEYE_CAN_SMILES>
C1=CC=C(C=C1)C(=O)C2=C(C=CC(=C2)C3=CC(=CN=C3)OCC(CC4=CNC5=CC=CC=C54)N)N

> <PUBCHEM_OPENEYE_ISO_SMILES>
C1=CC=C(C=C1)C(=O)C2=C(C=CC(=C2)C3=CC(=CN=C3)OCC(CC4=CNC5=CC=CC=C54)N)N

> <PUBCHEM_CACTVS_TPSA>
107

> <PUBCHEM_MONOISOTOPIC_WEIGHT>
462.20557608

> <PUBCHEM_TOTAL_CHARGE>
0

> <PUBCHEM_HEAVY_ATOM_COUNT>
35

> <PUBCHEM_ATOM_DEF_STEREO_COUNT>
0

> <PUBCHEM_ATOM_UDEF_STEREO_COUNT>
1

> <PUBCHEM_BOND_DEF_STEREO_COUNT>
0

> <PUBCHEM_BOND_UDEF_STEREO_COUNT>
0

> <PUBCHEM_ISOTOPIC_ATOM_COUNT>
0

> <PUBCHEM_COMPONENT_COUNT>
1

> <PUBCHEM_CACTVS_TAUTO_COUNT>
-1

> <PUBCHEM_COORDINATE_TYPE>
1
5
255

> <PUBCHEM_BONDANNOTATIONS>
10  12  8
10  14  8
12  15  8
14  16  8
15  17  8
16  17  8
18  21  8
18  24  8
19  21  8
19  27  8
20  23  8
20  25  8
22  23  8
22  26  8
25  28  8
26  28  8
3  12  8
3  13  8
30  31  8
30  32  8
31  33  8
32  34  8
33  35  8
34  35  8
8  4  3
5  24  8
5  27  8
9  10  8
9  13  8

$$$$
