135533388
  -OEChem-03202501342D

 36 38  0     0  0  0  0  0  0999 V2000
    4.7026    0.9207    0.0000 S   0  0  0  0  0  0  0  0  0  0  0  0
    2.0000   -3.5738    0.0000 O   0  0  0  0  0  0  0  0  0  0  0  0
    5.7195   -1.4587    0.0000 O   0  0  0  0  0  0  0  0  0  0  0  0
    6.1808    0.2626    0.0000 N   0  0  0  0  0  0  0  0  0  0  0  0
    6.0875    2.0422    0.0000 N   0  0  0  0  0  0  0  0  0  0  0  0
    3.7320   -1.5738    0.0000 C   0  0  0  0  0  0  0  0  0  0  0  0
    4.5981   -0.0738    0.0000 C   0  0  0  0  0  0  0  0  0  0  0  0
    3.7320   -0.5738    0.0000 C   0  0  0  0  0  0  0  0  0  0  0  0
    2.8660   -2.0738    0.0000 C   0  0  0  0  0  0  0  0  0  0  0  0
    5.5116   -0.4805    0.0000 C   0  0  0  0  0  0  0  0  0  0  0  0
    5.6808    1.1286    0.0000 C   0  0  0  0  0  0  0  0  0  0  0  0
    4.5981   -2.0738    0.0000 C   0  0  0  0  0  0  0  0  0  0  0  0
    2.8660   -3.0738    0.0000 C   0  0  0  0  0  0  0  0  0  0  0  0
    4.5981   -3.0738    0.0000 C   0  0  0  0  0  0  0  0  0  0  0  0
    3.7320   -3.5738    0.0000 C   0  0  0  0  0  0  0  0  0  0  0  0
    5.4997    2.8512    0.0000 C   0  0  0  0  0  0  0  0  0  0  0  0
    5.9064    3.7648    0.0000 C   0  0  0  0  0  0  0  0  0  0  0  0
    4.5052    2.7467    0.0000 C   0  0  0  0  0  0  0  0  0  0  0  0
    5.3187    4.5738    0.0000 C   0  0  0  0  0  0  0  0  0  0  0  0
    3.9174    3.5557    0.0000 C   0  0  0  0  0  0  0  0  0  0  0  0
    4.3241    4.4692    0.0000 C   0  0  0  0  0  0  0  0  0  0  0  0
    2.0000   -4.5738    0.0000 C   0  0  0  0  0  0  0  0  0  0  0  0
    3.1951   -0.2638    0.0000 H   0  0  0  0  0  0  0  0  0  0  0  0
    2.3291   -1.7638    0.0000 H   0  0  0  0  0  0  0  0  0  0  0  0
    5.1350   -1.7638    0.0000 H   0  0  0  0  0  0  0  0  0  0  0  0
    6.7974    0.1978    0.0000 H   0  0  0  0  0  0  0  0  0  0  0  0
    5.1350   -3.3838    0.0000 H   0  0  0  0  0  0  0  0  0  0  0  0
    3.7320   -4.1938    0.0000 H   0  0  0  0  0  0  0  0  0  0  0  0
    6.5230    3.8296    0.0000 H   0  0  0  0  0  0  0  0  0  0  0  0
    4.2530    2.1803    0.0000 H   0  0  0  0  0  0  0  0  0  0  0  0
    5.5708    5.1402    0.0000 H   0  0  0  0  0  0  0  0  0  0  0  0
    3.3008    3.4909    0.0000 H   0  0  0  0  0  0  0  0  0  0  0  0
    3.9597    4.9708    0.0000 H   0  0  0  0  0  0  0  0  0  0  0  0
    1.3800   -4.5738    0.0000 H   0  0  0  0  0  0  0  0  0  0  0  0
    2.0000   -5.1938    0.0000 H   0  0  0  0  0  0  0  0  0  0  0  0
    2.6200   -4.5738    0.0000 H   0  0  0  0  0  0  0  0  0  0  0  0
  1  7  1  0  0  0  0
  1 11  1  0  0  0  0
  2 13  1  0  0  0  0
  2 22  1  0  0  0  0
  3 10  2  0  0  0  0
  4 10  1  0  0  0  0
  4 11  1  0  0  0  0
  4 26  1  0  0  0  0
  5 11  2  0  0  0  0
  5 16  1  0  0  0  0
  6  8  1  0  0  0  0
  6  9  2  0  0  0  0
  6 12  1  0  0  0  0
  7  8  2  3  0  0  0
  7 10  1  0  0  0  0
  8 23  1  0  0  0  0
  9 13  1  0  0  0  0
  9 24  1  0  0  0  0
 12 14  2  0  0  0  0
 12 25  1  0  0  0  0
 13 15  2  0  0  0  0
 14 15  1  0  0  0  0
 14 27  1  0  0  0  0
 15 28  1  0  0  0  0
 16 17  2  0  0  0  0
 16 18  1  0  0  0  0
 17 19  1  0  0  0  0
 17 29  1  0  0  0  0
 18 20  2  0  0  0  0
 18 30  1  0  0  0  0
 19 21  2  0  0  0  0
 19 31  1  0  0  0  0
 20 21  1  0  0  0  0
 20 32  1  0  0  0  0
 21 33  1  0  0  0  0
 22 34  1  0  0  0  0
 22 35  1  0  0  0  0
 22 36  1  0  0  0  0
M  END
> <PUBCHEM_COMPOUND_CID>
135533388

> <PUBCHEM_COMPOUND_CANONICALIZED>
1

> <PUBCHEM_CACTVS_COMPLEXITY>
469

> <PUBCHEM_CACTVS_HBOND_ACCEPTOR>
4

> <PUBCHEM_CACTVS_HBOND_DONOR>
1

> <PUBCHEM_CACTVS_ROTATABLE_BOND>
3

> <PUBCHEM_CACTVS_SUBSKEYS>
AAADccB7MABAAAAAAAAAAAAAAAAAAWAAAAAwYAAAAAAAAAABQAAAHgQQAAAADAyB2AIzxoLABAioAiVSdACCGAFgIhAJiAAGbMgMJiKEuZuAMCBkwBEI6YeQwBAOAAABAAAAAAAAAAIAAAAAAAAAAAAAAA==

> <PUBCHEM_IUPAC_OPENEYE_NAME>
5-[(3-methoxyphenyl)methylene]-2-phenylimino-thiazolidin-4-one

> <PUBCHEM_IUPAC_CAS_NAME>
5-[(3-methoxyphenyl)methylidene]-2-phenylimino-4-thiazolidinone

> <PUBCHEM_IUPAC_NAME_MARKUP>
5-[(3-methoxyphenyl)methylidene]-2-phenylimino-1,3-thiazolidin-4-one

> <PUBCHEM_IUPAC_NAME>
5-[(3-methoxyphenyl)methylidene]-2-phenylimino-1,3-thiazolidin-4-one

> <PUBCHEM_IUPAC_SYSTEMATIC_NAME>
5-[(3-methoxyphenyl)methylidene]-2-phenylimino-1,3-thiazolidin-4-one

> <PUBCHEM_IUPAC_TRADITIONAL_NAME>
5-m-anisylidene-2-phenylimino-thiazolidin-4-one

> <PUBCHEM_IUPAC_INCHI>
InChI=1S/C17H14N2O2S/c1-21-14-9-5-6-12(10-14)11-15-16(20)19-17(22-15)18-13-7-3-2-4-8-13/h2-11H,1H3,(H,18,19,20)

> <PUBCHEM_IUPAC_INCHIKEY>
VGURQCQNQDZAOF-UHFFFAOYSA-N

> <PUBCHEM_XLOGP3_AA>
4

> <PUBCHEM_EXACT_MASS>
310.07759887

> <PUBCHEM_MOLECULAR_FORMULA>
C17H14N2O2S

> <PUBCHEM_MOLECULAR_WEIGHT>
310.4

> <PUBCHEM_SMILES>
COC1=CC=CC(=C1)C=C2C(=O)NC(=NC3=CC=CC=C3)S2

> <PUBCHEM_OPENEYE_CAN_SMILES>
COC1=CC=CC(=C1)C=C2C(=O)NC(=NC3=CC=CC=C3)S2

> <PUBCHEM_OPENEYE_ISO_SMILES>
COC1=CC=CC(=C1)C=C2C(=O)NC(=NC3=CC=CC=C3)S2

> <PUBCHEM_CACTVS_TPSA>
76

> <PUBCHEM_MONOISOTOPIC_WEIGHT>
310.07759887

> <PUBCHEM_TOTAL_CHARGE>
0

> <PUBCHEM_HEAVY_ATOM_COUNT>
22

> <PUBCHEM_ATOM_DEF_STEREO_COUNT>
0

> <PUBCHEM_ATOM_UDEF_STEREO_COUNT>
0

> <PUBCHEM_BOND_DEF_STEREO_COUNT>
0

> <PUBCHEM_BOND_UDEF_STEREO_COUNT>
1

> <PUBCHEM_ISOTOPIC_ATOM_COUNT>
0

> <PUBCHEM_COMPONENT_COUNT>
1

> <PUBCHEM_CACTVS_TAUTO_COUNT>
-1

> <PUBCHEM_COORDINATE_TYPE>
1
5
255

> <PUBCHEM_BONDANNOTATIONS>
12  14  8
13  15  8
14  15  8
16  17  8
16  18  8
17  19  8
18  20  8
19  21  8
20  21  8
6  12  8
6  9  8
7  8  1
9  13  8

$$$$
