49830589
  -OEChem-03202503362D

 52 55  0     1  0  0  0  0  0999 V2000
    8.9984   -1.1407    0.0000 S   0  0  0  0  0  0  0  0  0  0  0  0
    6.9280   -1.4156    0.0000 O   0  0  0  0  0  0  0  0  0  0  0  0
    2.5878    1.6114    0.0000 O   0  0  0  0  0  0  0  0  0  0  0  0
    6.7469    0.3069    0.0000 N   0  0  0  0  0  0  0  0  0  0  0  0
   14.0398   -1.7340    0.0000 N   0  0  0  0  0  0  0  0  0  0  0  0
   13.4562   -2.5387    0.0000 N   0  0  0  0  0  0  0  0  0  0  0  0
    5.7524    0.2024    0.0000 C   0  0  3  0  0  0  0  0  0  0  0  0
   10.7779   -1.2340    0.0000 C   0  0  0  0  0  0  0  0  0  0  0  0
    9.9119   -0.7340    0.0000 C   0  0  0  0  0  0  0  0  0  0  0  0
   12.5100   -1.2340    0.0000 C   0  0  0  0  0  0  0  0  0  0  0  0
    9.8074    0.2605    0.0000 C   0  0  0  0  0  0  0  0  0  0  0  0
    5.1646    1.0114    0.0000 C   0  0  0  0  0  0  0  0  0  0  0  0
   11.6440   -0.7340    0.0000 C   0  0  0  0  0  0  0  0  0  0  0  0
    8.3292   -0.3976    0.0000 C   0  0  0  0  0  0  0  0  0  0  0  0
   12.5100   -2.2340    0.0000 C   0  0  0  0  0  0  0  0  0  0  0  0
   13.4562   -0.9292    0.0000 C   0  0  0  0  0  0  0  0  0  0  0  0
    8.8292    0.4685    0.0000 C   0  0  0  0  0  0  0  0  0  0  0  0
   10.7779   -2.2340    0.0000 C   0  0  0  0  0  0  0  0  0  0  0  0
    5.3457   -0.7112    0.0000 C   0  0  0  0  0  0  0  0  0  0  0  0
    7.3347   -0.5021    0.0000 C   0  0  0  0  0  0  0  0  0  0  0  0
   11.6440   -2.7340    0.0000 C   0  0  0  0  0  0  0  0  0  0  0  0
    4.1701    0.9069    0.0000 C   0  0  0  0  0  0  0  0  0  0  0  0
   10.5505    0.9297    0.0000 C   0  0  0  0  0  0  0  0  0  0  0  0
    5.5714    1.9250    0.0000 C   0  0  0  0  0  0  0  0  0  0  0  0
   13.7669    0.0213    0.0000 C   0  0  0  0  0  0  0  0  0  0  0  0
    3.5823    1.7159    0.0000 C   0  0  0  0  0  0  0  0  0  0  0  0
    4.9836    2.7340    0.0000 C   0  0  0  0  0  0  0  0  0  0  0  0
    3.9890    2.6294    0.0000 C   0  0  0  0  0  0  0  0  0  0  0  0
    2.0000    2.4204    0.0000 C   0  0  0  0  0  0  0  0  0  0  0  0
    6.0046    0.7688    0.0000 H   0  0  0  0  0  0  0  0  0  0  0  0
   11.6440   -0.1140    0.0000 H   0  0  0  0  0  0  0  0  0  0  0  0
    6.9991    0.8733    0.0000 H   0  0  0  0  0  0  0  0  0  0  0  0
    8.5770    1.0349    0.0000 H   0  0  0  0  0  0  0  0  0  0  0  0
   10.2410   -2.5440    0.0000 H   0  0  0  0  0  0  0  0  0  0  0  0
    4.7793   -0.4590    0.0000 H   0  0  0  0  0  0  0  0  0  0  0  0
    5.0935   -1.2776    0.0000 H   0  0  0  0  0  0  0  0  0  0  0  0
    5.9121   -0.9633    0.0000 H   0  0  0  0  0  0  0  0  0  0  0  0
   11.6440   -3.3540    0.0000 H   0  0  0  0  0  0  0  0  0  0  0  0
    3.9179    0.3405    0.0000 H   0  0  0  0  0  0  0  0  0  0  0  0
   10.9654    0.4689    0.0000 H   0  0  0  0  0  0  0  0  0  0  0  0
   11.0113    1.3445    0.0000 H   0  0  0  0  0  0  0  0  0  0  0  0
   10.1357    1.3904    0.0000 H   0  0  0  0  0  0  0  0  0  0  0  0
    6.1880    1.9898    0.0000 H   0  0  0  0  0  0  0  0  0  0  0  0
   14.6598   -1.7340    0.0000 H   0  0  0  0  0  0  0  0  0  0  0  0
   14.3562   -0.1713    0.0000 H   0  0  0  0  0  0  0  0  0  0  0  0
   13.9595    0.6106    0.0000 H   0  0  0  0  0  0  0  0  0  0  0  0
   13.1775    0.2139    0.0000 H   0  0  0  0  0  0  0  0  0  0  0  0
    5.2357    3.3004    0.0000 H   0  0  0  0  0  0  0  0  0  0  0  0
    3.6246    3.1310    0.0000 H   0  0  0  0  0  0  0  0  0  0  0  0
    2.5016    2.7848    0.0000 H   0  0  0  0  0  0  0  0  0  0  0  0
    1.6356    2.9220    0.0000 H   0  0  0  0  0  0  0  0  0  0  0  0
    1.4984    2.0560    0.0000 H   0  0  0  0  0  0  0  0  0  0  0  0
  1  9  1  0  0  0  0
  1 14  1  0  0  0  0
  2 20  2  0  0  0  0
  3 26  1  0  0  0  0
  3 29  1  0  0  0  0
  4  7  1  0  0  0  0
  4 20  1  0  0  0  0
  4 32  1  0  0  0  0
  5  6  1  0  0  0  0
  5 16  1  0  0  0  0
  5 44  1  0  0  0  0
  6 15  2  0  0  0  0
  7 12  1  0  0  0  0
  7 19  1  0  0  0  0
  7 30  1  0  0  0  0
  8  9  1  0  0  0  0
  8 13  2  0  0  0  0
  8 18  1  0  0  0  0
  9 11  2  0  0  0  0
 10 13  1  0  0  0  0
 10 15  1  0  0  0  0
 10 16  2  0  0  0  0
 11 17  1  0  0  0  0
 11 23  1  0  0  0  0
 12 22  2  0  0  0  0
 12 24  1  0  0  0  0
 13 31  1  0  0  0  0
 14 17  2  0  0  0  0
 14 20  1  0  0  0  0
 15 21  1  0  0  0  0
 16 25  1  0  0  0  0
 17 33  1  0  0  0  0
 18 21  2  0  0  0  0
 18 34  1  0  0  0  0
 19 35  1  0  0  0  0
 19 36  1  0  0  0  0
 19 37  1  0  0  0  0
 21 38  1  0  0  0  0
 22 26  1  0  0  0  0
 22 39  1  0  0  0  0
 23 40  1  0  0  0  0
 23 41  1  0  0  0  0
 23 42  1  0  0  0  0
 24 27  2  0  0  0  0
 24 43  1  0  0  0  0
 25 45  1  0  0  0  0
 25 46  1  0  0  0  0
 25 47  1  0  0  0  0
 26 28  2  0  0  0  0
 27 28  1  0  0  0  0
 27 48  1  0  0  0  0
 28 49  1  0  0  0  0
 29 50  1  0  0  0  0
 29 51  1  0  0  0  0
 29 52  1  0  0  0  0
M  END
> <PUBCHEM_COMPOUND_CID>
49830589

> <PUBCHEM_COMPOUND_CANONICALIZED>
1

> <PUBCHEM_CACTVS_COMPLEXITY>
576

> <PUBCHEM_CACTVS_HBOND_ACCEPTOR>
4

> <PUBCHEM_CACTVS_HBOND_DONOR>
2

> <PUBCHEM_CACTVS_ROTATABLE_BOND>
5

> <PUBCHEM_CACTVS_SUBSKEYS>
AAADceB7MABAAAAAAAAAAAAAAAAAAWJAAAAwYAAAAAAAAFgB/AAAHgQYAAAADCzB3gYyx/LjBAiuAyVyUACTDIAkKhBYubk+bNgMJrKk9duEtShk3hGo6Ye4yPCOCAADAAACAAAQAAYAAAQAAAAAAAAAAA==

> <PUBCHEM_IUPAC_OPENEYE_NAME>
N-[1-(3-methoxyphenyl)ethyl]-4-methyl-5-(3-methyl-2H-indazol-5-yl)thiophene-2-carboxamide

> <PUBCHEM_IUPAC_CAS_NAME>
N-[1-(3-methoxyphenyl)ethyl]-4-methyl-5-(3-methyl-2H-indazol-5-yl)-2-thiophenecarboxamide

> <PUBCHEM_IUPAC_NAME_MARKUP>
<I>N</I>-[1-(3-methoxyphenyl)ethyl]-4-methyl-5-(3-methyl-2<I>H</I>-indazol-5-yl)thiophene-2-carboxamide

> <PUBCHEM_IUPAC_NAME>
N-[1-(3-methoxyphenyl)ethyl]-4-methyl-5-(3-methyl-2H-indazol-5-yl)thiophene-2-carboxamide

> <PUBCHEM_IUPAC_SYSTEMATIC_NAME>
N-[1-(3-methoxyphenyl)ethyl]-4-methyl-5-(3-methyl-2H-indazol-5-yl)thiophene-2-carboxamide

> <PUBCHEM_IUPAC_TRADITIONAL_NAME>
N-[1-(3-methoxyphenyl)ethyl]-4-methyl-5-(3-methyl-2H-indazol-5-yl)thiophene-2-carboxamide

> <PUBCHEM_IUPAC_INCHI>
InChI=1S/C23H23N3O2S/c1-13-10-21(23(27)24-14(2)16-6-5-7-18(11-16)28-4)29-22(13)17-8-9-20-19(12-17)15(3)25-26-20/h5-12,14H,1-4H3,(H,24,27)(H,25,26)

> <PUBCHEM_IUPAC_INCHIKEY>
UAQJVFADAYIBGC-UHFFFAOYSA-N

> <PUBCHEM_XLOGP3_AA>
5.1

> <PUBCHEM_EXACT_MASS>
405.15109816

> <PUBCHEM_MOLECULAR_FORMULA>
C23H23N3O2S

> <PUBCHEM_MOLECULAR_WEIGHT>
405.5

> <PUBCHEM_SMILES>
CC1=C(SC(=C1)C(=O)NC(C)C2=CC(=CC=C2)OC)C3=CC4=C(NN=C4C=C3)C

> <PUBCHEM_OPENEYE_CAN_SMILES>
CC1=C(SC(=C1)C(=O)NC(C)C2=CC(=CC=C2)OC)C3=CC4=C(NN=C4C=C3)C

> <PUBCHEM_OPENEYE_ISO_SMILES>
CC1=C(SC(=C1)C(=O)NC(C)C2=CC(=CC=C2)OC)C3=CC4=C(NN=C4C=C3)C

> <PUBCHEM_CACTVS_TPSA>
95.3

> <PUBCHEM_MONOISOTOPIC_WEIGHT>
405.15109816

> <PUBCHEM_TOTAL_CHARGE>
0

> <PUBCHEM_HEAVY_ATOM_COUNT>
29

> <PUBCHEM_ATOM_DEF_STEREO_COUNT>
0

> <PUBCHEM_ATOM_UDEF_STEREO_COUNT>
1

> <PUBCHEM_BOND_DEF_STEREO_COUNT>
0

> <PUBCHEM_BOND_UDEF_STEREO_COUNT>
0

> <PUBCHEM_ISOTOPIC_ATOM_COUNT>
0

> <PUBCHEM_COMPONENT_COUNT>
1

> <PUBCHEM_CACTVS_TAUTO_COUNT>
-1

> <PUBCHEM_COORDINATE_TYPE>
1
5
255

> <PUBCHEM_BONDANNOTATIONS>
1  14  8
1  9  8
10  13  8
10  15  8
10  16  8
11  17  8
12  22  8
12  24  8
14  17  8
15  21  8
18  21  8
22  26  8
24  27  8
26  28  8
27  28  8
5  16  8
5  6  8
6  15  8
7  19  3
8  13  8
8  18  8
9  11  8

$$$$
