489125
  -OEChem-03202506152D

 45 50  0     0  0  0  0  0  0999 V2000
    7.3723   -1.7552    0.0000 O   0  0  0  0  0  0  0  0  0  0  0  0
    7.3723    1.7552    0.0000 O   0  0  0  0  0  0  0  0  0  0  0  0
    3.6464   -1.1671    0.0000 N   0  0  0  0  0  0  0  0  0  0  0  0
    3.6464    1.1671    0.0000 N   0  0  0  0  0  0  0  0  0  0  0  0
    7.6452    0.0000    0.0000 N   0  0  0  0  0  0  0  0  0  0  0  0
    4.3834   -0.5000    0.0000 C   0  0  0  0  0  0  0  0  0  0  0  0
    5.2494   -1.0000    0.0000 C   0  0  0  0  0  0  0  0  0  0  0  0
    4.3834    0.5000    0.0000 C   0  0  0  0  0  0  0  0  0  0  0  0
    5.2494    1.0000    0.0000 C   0  0  0  0  0  0  0  0  0  0  0  0
    6.1154   -0.5000    0.0000 C   0  0  0  0  0  0  0  0  0  0  0  0
    5.0402   -1.9718    0.0000 C   0  0  0  0  0  0  0  0  0  0  0  0
    4.0515   -2.0749    0.0000 C   0  0  0  0  0  0  0  0  0  0  0  0
    6.1154    0.5000    0.0000 C   0  0  0  0  0  0  0  0  0  0  0  0
    2.6678   -0.9609    0.0000 C   0  0  0  0  0  0  0  0  0  0  0  0
    5.0402    1.9718    0.0000 C   0  0  0  0  0  0  0  0  0  0  0  0
    4.0515    2.0749    0.0000 C   0  0  0  0  0  0  0  0  0  0  0  0
    7.0616   -0.8047    0.0000 C   0  0  0  0  0  0  0  0  0  0  0  0
    7.0616    0.8047    0.0000 C   0  0  0  0  0  0  0  0  0  0  0  0
    5.6609   -2.8006    0.0000 C   0  0  0  0  0  0  0  0  0  0  0  0
    3.6150   -3.0138    0.0000 C   0  0  0  0  0  0  0  0  0  0  0  0
    2.0000   -1.7052    0.0000 C   0  0  0  0  0  0  0  0  0  0  0  0
    2.3572   -0.0103    0.0000 C   0  0  0  0  0  0  0  0  0  0  0  0
    5.6609    2.8006    0.0000 C   0  0  0  0  0  0  0  0  0  0  0  0
    3.6150    3.0138    0.0000 C   0  0  0  0  0  0  0  0  0  0  0  0
    5.2463   -3.7494    0.0000 C   0  0  0  0  0  0  0  0  0  0  0  0
    4.2164   -3.8567    0.0000 C   0  0  0  0  0  0  0  0  0  0  0  0
    5.2463    3.7494    0.0000 C   0  0  0  0  0  0  0  0  0  0  0  0
    4.2164    3.8567    0.0000 C   0  0  0  0  0  0  0  0  0  0  0  0
    2.0612   -0.8330    0.0000 H   0  0  0  0  0  0  0  0  0  0  0  0
    3.0397    1.0392    0.0000 H   0  0  0  0  0  0  0  0  0  0  0  0
    6.2768   -2.7292    0.0000 H   0  0  0  0  0  0  0  0  0  0  0  0
    2.9976   -3.0710    0.0000 H   0  0  0  0  0  0  0  0  0  0  0  0
    1.5385   -1.2911    0.0000 H   0  0  0  0  0  0  0  0  0  0  0  0
    1.5859   -2.1666    0.0000 H   0  0  0  0  0  0  0  0  0  0  0  0
    2.4615   -2.1192    0.0000 H   0  0  0  0  0  0  0  0  0  0  0  0
    2.9465    0.1823    0.0000 H   0  0  0  0  0  0  0  0  0  0  0  0
    2.1646    0.5790    0.0000 H   0  0  0  0  0  0  0  0  0  0  0  0
    1.7679   -0.2030    0.0000 H   0  0  0  0  0  0  0  0  0  0  0  0
    8.2652    0.0000    0.0000 H   0  0  0  0  0  0  0  0  0  0  0  0
    6.2768    2.7292    0.0000 H   0  0  0  0  0  0  0  0  0  0  0  0
    2.9976    3.0710    0.0000 H   0  0  0  0  0  0  0  0  0  0  0  0
    5.6122   -4.2499    0.0000 H   0  0  0  0  0  0  0  0  0  0  0  0
    3.9615   -4.4219    0.0000 H   0  0  0  0  0  0  0  0  0  0  0  0
    5.6122    4.2499    0.0000 H   0  0  0  0  0  0  0  0  0  0  0  0
    3.9615    4.4219    0.0000 H   0  0  0  0  0  0  0  0  0  0  0  0
  1 17  2  0  0  0  0
  2 18  2  0  0  0  0
  3  6  1  0  0  0  0
  3 12  1  0  0  0  0
  3 14  1  0  0  0  0
  4  8  1  0  0  0  0
  4 16  1  0  0  0  0
  4 30  1  0  0  0  0
  5 17  1  0  0  0  0
  5 18  1  0  0  0  0
  5 39  1  0  0  0  0
  6  7  1  0  0  0  0
  6  8  2  0  0  0  0
  7 10  2  0  0  0  0
  7 11  1  0  0  0  0
  8  9  1  0  0  0  0
  9 13  2  0  0  0  0
  9 15  1  0  0  0  0
 10 13  1  0  0  0  0
 10 17  1  0  0  0  0
 11 12  1  0  0  0  0
 11 19  2  0  0  0  0
 12 20  2  0  0  0  0
 13 18  1  0  0  0  0
 14 21  1  0  0  0  0
 14 22  1  0  0  0  0
 14 29  1  0  0  0  0
 15 16  1  0  0  0  0
 15 23  2  0  0  0  0
 16 24  2  0  0  0  0
 19 25  1  0  0  0  0
 19 31  1  0  0  0  0
 20 26  1  0  0  0  0
 20 32  1  0  0  0  0
 21 33  1  0  0  0  0
 21 34  1  0  0  0  0
 21 35  1  0  0  0  0
 22 36  1  0  0  0  0
 22 37  1  0  0  0  0
 22 38  1  0  0  0  0
 23 27  1  0  0  0  0
 23 40  1  0  0  0  0
 24 28  1  0  0  0  0
 24 41  1  0  0  0  0
 25 26  2  0  0  0  0
 25 42  1  0  0  0  0
 26 43  1  0  0  0  0
 27 28  2  0  0  0  0
 27 44  1  0  0  0  0
 28 45  1  0  0  0  0
M  END
> <PUBCHEM_COMPOUND_CID>
489125

> <PUBCHEM_COMPOUND_CANONICALIZED>
1

> <PUBCHEM_CACTVS_COMPLEXITY>
693

> <PUBCHEM_CACTVS_HBOND_ACCEPTOR>
2

> <PUBCHEM_CACTVS_HBOND_DONOR>
2

> <PUBCHEM_CACTVS_ROTATABLE_BOND>
1

> <PUBCHEM_CACTVS_SUBSKEYS>
AAADceB7MAAAAAAAAAAAAAAAAAAAAWLFgAAwYMAAAAAAAFgB/gAAHgAQAAAADCjBngQywPPNkACoAyVyVACCgCQlEiAI2SE4dNgIYPLAlZGUIQhglCDIyQcdicCeyAACQAASACCQAASAACQAQAAAAAAAAA==

> <PUBCHEM_IUPAC_OPENEYE_NAME>
3-isopropyl-3,13,23-triazahexacyclo[14.7.0.02,10.04,9.011,15.017,22]tricosa-1,4,6,8,10,15,17,19,21-nonaene-12,14-dione

> <PUBCHEM_IUPAC_CAS_NAME>
3-propan-2-yl-3,13,23-triazahexacyclo[14.7.0.02,10.04,9.011,15.017,22]tricosa-1,4,6,8,10,15,17,19,21-nonaene-12,14-dione

> <PUBCHEM_IUPAC_NAME_MARKUP>
3-propan-2-yl-3,13,23-triazahexacyclo[14.7.0.0<SUP>2,10</SUP>.0<SUP>4,9</SUP>.0<SUP>11,15</SUP>.0<SUP>17,22</SUP>]tricosa-1,4,6,8,10,15,17,19,21-nonaene-12,14-dione

> <PUBCHEM_IUPAC_NAME>
3-propan-2-yl-3,13,23-triazahexacyclo[14.7.0.02,10.04,9.011,15.017,22]tricosa-1,4,6,8,10,15,17,19,21-nonaene-12,14-dione

> <PUBCHEM_IUPAC_SYSTEMATIC_NAME>
3-propan-2-yl-3,13,23-triazahexacyclo[14.7.0.02,10.04,9.011,15.017,22]tricosa-1,4,6,8,10,15,17,19,21-nonaene-12,14-dione

> <PUBCHEM_IUPAC_TRADITIONAL_NAME>
3-isopropyl-3,13,23-triazahexacyclo[14.7.0.02,10.04,9.011,15.017,22]tricosa-1,4,6,8,10,15,17,19,21-nonaene-12,14-quinone

> <PUBCHEM_IUPAC_INCHI>
InChI=1S/C23H17N3O2/c1-11(2)26-15-10-6-4-8-13(15)17-19-18(22(27)25-23(19)28)16-12-7-3-5-9-14(12)24-20(16)21(17)26/h3-11,24H,1-2H3,(H,25,27,28)

> <PUBCHEM_IUPAC_INCHIKEY>
BUQFPJLZYIYRHD-UHFFFAOYSA-N

> <PUBCHEM_XLOGP3_AA>
4.3

> <PUBCHEM_EXACT_MASS>
367.132076794

> <PUBCHEM_MOLECULAR_FORMULA>
C23H17N3O2

> <PUBCHEM_MOLECULAR_WEIGHT>
367.4

> <PUBCHEM_SMILES>
CC(C)N1C2=CC=CC=C2C3=C4C(=C5C6=CC=CC=C6NC5=C31)C(=O)NC4=O

> <PUBCHEM_OPENEYE_CAN_SMILES>
CC(C)N1C2=CC=CC=C2C3=C4C(=C5C6=CC=CC=C6NC5=C31)C(=O)NC4=O

> <PUBCHEM_OPENEYE_ISO_SMILES>
CC(C)N1C2=CC=CC=C2C3=C4C(=C5C6=CC=CC=C6NC5=C31)C(=O)NC4=O

> <PUBCHEM_CACTVS_TPSA>
66.9

> <PUBCHEM_MONOISOTOPIC_WEIGHT>
367.132076794

> <PUBCHEM_TOTAL_CHARGE>
0

> <PUBCHEM_HEAVY_ATOM_COUNT>
28

> <PUBCHEM_ATOM_DEF_STEREO_COUNT>
0

> <PUBCHEM_ATOM_UDEF_STEREO_COUNT>
0

> <PUBCHEM_BOND_DEF_STEREO_COUNT>
0

> <PUBCHEM_BOND_UDEF_STEREO_COUNT>
0

> <PUBCHEM_ISOTOPIC_ATOM_COUNT>
0

> <PUBCHEM_COMPONENT_COUNT>
1

> <PUBCHEM_CACTVS_TAUTO_COUNT>
-1

> <PUBCHEM_COORDINATE_TYPE>
1
5
255

> <PUBCHEM_BONDANNOTATIONS>
10  13  8
11  12  8
11  19  8
12  20  8
15  16  8
15  23  8
16  24  8
19  25  8
20  26  8
23  27  8
24  28  8
25  26  8
27  28  8
3  12  8
3  6  8
4  16  8
4  8  8
6  7  8
6  8  8
7  10  8
7  11  8
8  9  8
9  13  8
9  15  8

$$$$
