447873
  -OEChem-03202506212D

 69 73  0     0  0  0  0  0  0999 V2000
    5.0476    3.7964    0.0000 Cl  0  0  0  0  0  0  0  0  0  0  0  0
    3.1455    4.4144    0.0000 Cl  0  0  0  0  0  0  0  0  0  0  0  0
    4.7861   -0.8995    0.0000 N   0  0  0  0  0  0  0  0  0  0  0  0
    2.5878   -3.8480    0.0000 N   0  0  0  0  0  0  0  0  0  0  0  0
    8.3548    0.0951    0.0000 N   0  0  0  0  0  0  0  0  0  0  0  0
    3.3080   -0.2413    0.0000 N   0  0  0  0  0  0  0  0  0  0  0  0
    6.6227    0.0951    0.0000 N   0  0  0  0  0  0  0  0  0  0  0  0
    7.4888    1.5951    0.0000 N   0  0  0  0  0  0  0  0  0  0  0  0
    3.4013   -2.0209    0.0000 C   0  0  0  0  0  0  0  0  0  0  0  0
    9.2208    0.5951    0.0000 C   0  0  0  0  0  0  0  0  0  0  0  0
    3.9890   -2.8299    0.0000 C   0  0  0  0  0  0  0  0  0  0  0  0
    2.4067   -2.1254    0.0000 C   0  0  0  0  0  0  0  0  0  0  0  0
   10.0868    0.0951    0.0000 C   0  0  0  0  0  0  0  0  0  0  0  0
    9.2208    1.5951    0.0000 C   0  0  0  0  0  0  0  0  0  0  0  0
    3.8080   -1.1074    0.0000 C   0  0  0  0  0  0  0  0  0  0  0  0
   10.9528    0.5951    0.0000 C   0  0  0  0  0  0  0  0  0  0  0  0
   10.0868    2.0951    0.0000 C   0  0  0  0  0  0  0  0  0  0  0  0
   10.9528    1.5951    0.0000 C   0  0  0  0  0  0  0  0  0  0  0  0
    3.5823   -3.7435    0.0000 C   0  0  0  0  0  0  0  0  0  0  0  0
    2.0000   -3.0390    0.0000 C   0  0  0  0  0  0  0  0  0  0  0  0
    4.8907    0.0951    0.0000 C   0  0  0  0  0  0  0  0  0  0  0  0
    5.5293   -1.5686    0.0000 C   0  0  0  0  0  0  0  0  0  0  0  0
    3.9771    0.5018    0.0000 C   0  0  0  0  0  0  0  0  0  0  0  0
    5.7567    0.5951    0.0000 C   0  0  0  0  0  0  0  0  0  0  0  0
    7.4888    0.5951    0.0000 C   0  0  0  0  0  0  0  0  0  0  0  0
    5.3214   -2.5467    0.0000 C   0  0  0  0  0  0  0  0  0  0  0  0
    3.7692    1.4800    0.0000 C   0  0  0  0  0  0  0  0  0  0  0  0
    5.7567    1.5951    0.0000 C   0  0  0  0  0  0  0  0  0  0  0  0
    6.0645   -3.2159    0.0000 C   0  0  0  0  0  0  0  0  0  0  0  0
    6.6227    2.0951    0.0000 C   0  0  0  0  0  0  0  0  0  0  0  0
    4.5124    2.1491    0.0000 C   0  0  0  0  0  0  0  0  0  0  0  0
    2.8182    1.7890    0.0000 C   0  0  0  0  0  0  0  0  0  0  0  0
    4.3044    3.1272    0.0000 C   0  0  0  0  0  0  0  0  0  0  0  0
    2.6102    2.7671    0.0000 C   0  0  0  0  0  0  0  0  0  0  0  0
    3.3534    3.4362    0.0000 C   0  0  0  0  0  0  0  0  0  0  0  0
    4.0179   -1.9561    0.0000 H   0  0  0  0  0  0  0  0  0  0  0  0
    9.2208   -0.0249    0.0000 H   0  0  0  0  0  0  0  0  0  0  0  0
    4.5030   -3.1766    0.0000 H   0  0  0  0  0  0  0  0  0  0  0  0
    4.4197   -2.3839    0.0000 H   0  0  0  0  0  0  0  0  0  0  0  0
    2.4500   -1.5070    0.0000 H   0  0  0  0  0  0  0  0  0  0  0  0
    1.8052   -1.9754    0.0000 H   0  0  0  0  0  0  0  0  0  0  0  0
    9.6883   -0.3799    0.0000 H   0  0  0  0  0  0  0  0  0  0  0  0
   10.4854   -0.3799    0.0000 H   0  0  0  0  0  0  0  0  0  0  0  0
    9.0087    2.1777    0.0000 H   0  0  0  0  0  0  0  0  0  0  0  0
    8.6102    1.4874    0.0000 H   0  0  0  0  0  0  0  0  0  0  0  0
   11.1649    0.0125    0.0000 H   0  0  0  0  0  0  0  0  0  0  0  0
   11.5634    0.7027    0.0000 H   0  0  0  0  0  0  0  0  0  0  0  0
   10.4854    2.5700    0.0000 H   0  0  0  0  0  0  0  0  0  0  0  0
    9.6883    2.5700    0.0000 H   0  0  0  0  0  0  0  0  0  0  0  0
   11.5634    1.4874    0.0000 H   0  0  0  0  0  0  0  0  0  0  0  0
   11.1649    2.1777    0.0000 H   0  0  0  0  0  0  0  0  0  0  0  0
    3.5391   -4.3620    0.0000 H   0  0  0  0  0  0  0  0  0  0  0  0
    4.1839   -3.8935    0.0000 H   0  0  0  0  0  0  0  0  0  0  0  0
    1.4860   -2.6923    0.0000 H   0  0  0  0  0  0  0  0  0  0  0  0
    1.5693   -3.4850    0.0000 H   0  0  0  0  0  0  0  0  0  0  0  0
    2.3356   -4.4144    0.0000 H   0  0  0  0  0  0  0  0  0  0  0  0
    8.3548   -0.5249    0.0000 H   0  0  0  0  0  0  0  0  0  0  0  0
    6.1041   -1.8008    0.0000 H   0  0  0  0  0  0  0  0  0  0  0  0
    5.8578   -1.0428    0.0000 H   0  0  0  0  0  0  0  0  0  0  0  0
    4.7465   -2.3145    0.0000 H   0  0  0  0  0  0  0  0  0  0  0  0
    4.9928   -3.0725    0.0000 H   0  0  0  0  0  0  0  0  0  0  0  0
    5.2198    1.9051    0.0000 H   0  0  0  0  0  0  0  0  0  0  0  0
    5.6497   -3.6766    0.0000 H   0  0  0  0  0  0  0  0  0  0  0  0
    6.5253   -3.6307    0.0000 H   0  0  0  0  0  0  0  0  0  0  0  0
    6.4794   -2.7551    0.0000 H   0  0  0  0  0  0  0  0  0  0  0  0
    6.6227    2.7151    0.0000 H   0  0  0  0  0  0  0  0  0  0  0  0
    5.1020    1.9575    0.0000 H   0  0  0  0  0  0  0  0  0  0  0  0
    2.3574    1.3741    0.0000 H   0  0  0  0  0  0  0  0  0  0  0  0
    2.0206    2.9587    0.0000 H   0  0  0  0  0  0  0  0  0  0  0  0
  1 33  1  0  0  0  0
  2 35  1  0  0  0  0
  3 15  1  0  0  0  0
  3 21  1  0  0  0  0
  3 22  1  0  0  0  0
  4 19  1  0  0  0  0
  4 20  1  0  0  0  0
  4 56  1  0  0  0  0
  5 10  1  0  0  0  0
  5 25  1  0  0  0  0
  5 57  1  0  0  0  0
  6 15  2  0  0  0  0
  6 23  1  0  0  0  0
  7 24  2  0  0  0  0
  7 25  1  0  0  0  0
  8 25  2  0  0  0  0
  8 30  1  0  0  0  0
  9 11  1  0  0  0  0
  9 12  1  0  0  0  0
  9 15  1  0  0  0  0
  9 36  1  0  0  0  0
 10 13  1  0  0  0  0
 10 14  1  0  0  0  0
 10 37  1  0  0  0  0
 11 19  1  0  0  0  0
 11 38  1  0  0  0  0
 11 39  1  0  0  0  0
 12 20  1  0  0  0  0
 12 40  1  0  0  0  0
 12 41  1  0  0  0  0
 13 16  1  0  0  0  0
 13 42  1  0  0  0  0
 13 43  1  0  0  0  0
 14 17  1  0  0  0  0
 14 44  1  0  0  0  0
 14 45  1  0  0  0  0
 16 18  1  0  0  0  0
 16 46  1  0  0  0  0
 16 47  1  0  0  0  0
 17 18  1  0  0  0  0
 17 48  1  0  0  0  0
 17 49  1  0  0  0  0
 18 50  1  0  0  0  0
 18 51  1  0  0  0  0
 19 52  1  0  0  0  0
 19 53  1  0  0  0  0
 20 54  1  0  0  0  0
 20 55  1  0  0  0  0
 21 23  2  0  0  0  0
 21 24  1  0  0  0  0
 22 26  1  0  0  0  0
 22 58  1  0  0  0  0
 22 59  1  0  0  0  0
 23 27  1  0  0  0  0
 24 28  1  0  0  0  0
 26 29  1  0  0  0  0
 26 60  1  0  0  0  0
 26 61  1  0  0  0  0
 27 31  2  0  0  0  0
 27 32  1  0  0  0  0
 28 30  2  0  0  0  0
 28 62  1  0  0  0  0
 29 63  1  0  0  0  0
 29 64  1  0  0  0  0
 29 65  1  0  0  0  0
 30 66  1  0  0  0  0
 31 33  1  0  0  0  0
 31 67  1  0  0  0  0
 32 34  2  0  0  0  0
 32 68  1  0  0  0  0
 33 35  2  0  0  0  0
 34 35  1  0  0  0  0
 34 69  1  0  0  0  0
M  END
> <PUBCHEM_COMPOUND_CID>
447873

> <PUBCHEM_COMPOUND_CANONICALIZED>
1

> <PUBCHEM_CACTVS_COMPLEXITY>
643

> <PUBCHEM_CACTVS_HBOND_ACCEPTOR>
5

> <PUBCHEM_CACTVS_HBOND_DONOR>
2

> <PUBCHEM_CACTVS_ROTATABLE_BOND>
7

> <PUBCHEM_CACTVS_SUBSKEYS>
AAADcfB7gAAGAAAAAAAAAAAAAAAAAWAAAAA8eIEAAAAAAAAB8AAAHAIQAAAADSrBHyQ/kJfMEACgAzZnZACCgC0xF6AJ2uA4dpiIaKLB29GUJAhokALIyCcQgMAOBAAAIAAAAAQIAABAAAAACAAAAAAAAA==

> <PUBCHEM_IUPAC_OPENEYE_NAME>
N-cyclohexyl-4-[5-(3,4-dichlorophenyl)-2-(4-piperidyl)-3-propyl-imidazol-4-yl]pyrimidin-2-amine

> <PUBCHEM_IUPAC_CAS_NAME>
N-cyclohexyl-4-[5-(3,4-dichlorophenyl)-2-(4-piperidinyl)-3-propyl-4-imidazolyl]-2-pyrimidinamine

> <PUBCHEM_IUPAC_NAME_MARKUP>
<I>N</I>-cyclohexyl-4-[5-(3,4-dichlorophenyl)-2-piperidin-4-yl-3-propylimidazol-4-yl]pyrimidin-2-amine

> <PUBCHEM_IUPAC_NAME>
N-cyclohexyl-4-[5-(3,4-dichlorophenyl)-2-piperidin-4-yl-3-propylimidazol-4-yl]pyrimidin-2-amine

> <PUBCHEM_IUPAC_SYSTEMATIC_NAME>
N-cyclohexyl-4-[5-(3,4-dichlorophenyl)-2-piperidin-4-yl-3-propyl-imidazol-4-yl]pyrimidin-2-amine

> <PUBCHEM_IUPAC_TRADITIONAL_NAME>
cyclohexyl-[4-[5-(3,4-dichlorophenyl)-2-(4-piperidyl)-3-propyl-imidazol-4-yl]pyrimidin-2-yl]amine

> <PUBCHEM_IUPAC_INCHI>
InChI=1S/C27H34Cl2N6/c1-2-16-35-25(23-12-15-31-27(33-23)32-20-6-4-3-5-7-20)24(19-8-9-21(28)22(29)17-19)34-26(35)18-10-13-30-14-11-18/h8-9,12,15,17-18,20,30H,2-7,10-11,13-14,16H2,1H3,(H,31,32,33)

> <PUBCHEM_IUPAC_INCHIKEY>
UQFRSHRWRKYNDE-UHFFFAOYSA-N

> <PUBCHEM_XLOGP3_AA>
6

> <PUBCHEM_EXACT_MASS>
512.2222005

> <PUBCHEM_MOLECULAR_FORMULA>
C27H34Cl2N6

> <PUBCHEM_MOLECULAR_WEIGHT>
513.5

> <PUBCHEM_SMILES>
CCCN1C(=NC(=C1C2=NC(=NC=C2)NC3CCCCC3)C4=CC(=C(C=C4)Cl)Cl)C5CCNCC5

> <PUBCHEM_OPENEYE_CAN_SMILES>
CCCN1C(=NC(=C1C2=NC(=NC=C2)NC3CCCCC3)C4=CC(=C(C=C4)Cl)Cl)C5CCNCC5

> <PUBCHEM_OPENEYE_ISO_SMILES>
CCCN1C(=NC(=C1C2=NC(=NC=C2)NC3CCCCC3)C4=CC(=C(C=C4)Cl)Cl)C5CCNCC5

> <PUBCHEM_CACTVS_TPSA>
67.7

> <PUBCHEM_MONOISOTOPIC_WEIGHT>
512.2222005

> <PUBCHEM_TOTAL_CHARGE>
0

> <PUBCHEM_HEAVY_ATOM_COUNT>
35

> <PUBCHEM_ATOM_DEF_STEREO_COUNT>
0

> <PUBCHEM_ATOM_UDEF_STEREO_COUNT>
0

> <PUBCHEM_BOND_DEF_STEREO_COUNT>
0

> <PUBCHEM_BOND_UDEF_STEREO_COUNT>
0

> <PUBCHEM_ISOTOPIC_ATOM_COUNT>
0

> <PUBCHEM_COMPONENT_COUNT>
1

> <PUBCHEM_CACTVS_TAUTO_COUNT>
-1

> <PUBCHEM_COORDINATE_TYPE>
1
5
255

> <PUBCHEM_BONDANNOTATIONS>
21  23  8
24  28  8
27  31  8
27  32  8
28  30  8
3  15  8
3  21  8
31  33  8
32  34  8
33  35  8
34  35  8
6  15  8
6  23  8
7  24  8
7  25  8
8  25  8
8  30  8

$$$$
