44378582
  -OEChem-03202506212D

173174  0     1  0  0  0  0  0999 V2000
    6.5000   -4.3100    0.0000 S   0  0  0  0  0  0  0  0  0  0  0  0
   11.4327    0.1900    0.0000 O   0  0  0  0  0  0  0  0  0  0  0  0
   14.1647    2.6900    0.0000 O   0  0  0  0  0  0  0  0  0  0  0  0
    8.7006    2.6900    0.0000 O   0  0  0  0  0  0  0  0  0  0  0  0
   16.8968    0.1900    0.0000 O   0  0  0  0  0  0  0  0  0  0  0  0
    5.1026    1.6900    0.0000 O   0  0  0  0  0  0  0  0  0  0  0  0
   18.6288    3.1900    0.0000 O   0  0  0  0  0  0  0  0  0  0  0  0
    5.9686    0.1900    0.0000 O   0  0  0  0  0  0  0  0  0  0  0  0
   16.4282   -6.8100    0.0000 O   0  0  0  0  0  0  0  0  0  0  0  0
    6.5000   -3.3100    0.0000 O   0  0  0  0  0  0  0  0  0  0  0  0
    7.5000   -4.3100    0.0000 O   0  0  0  0  0  0  0  0  0  0  0  0
   13.6962   -4.3100    0.0000 O   0  0  0  0  0  0  0  0  0  0  0  0
    8.2320   -4.3100    0.0000 O   0  0  0  0  0  0  0  0  0  0  0  0
   10.9641   -6.8100    0.0000 O   0  0  0  0  0  0  0  0  0  0  0  0
   13.1647    1.1900    0.0000 N   0  0  0  0  0  0  0  0  0  0  0  0
   10.4327    1.6900    0.0000 N   0  0  0  0  0  0  0  0  0  0  0  0
   15.8968    1.6900    0.0000 N   0  0  0  0  0  0  0  0  0  0  0  0
    7.7006    1.1900    0.0000 N   0  0  0  0  0  0  0  0  0  0  0  0
   18.6288    1.1900    0.0000 N   0  0  0  0  0  0  0  0  0  0  0  0
   10.5667    4.6900    0.0000 N   0  0  0  0  0  0  0  0  0  0  0  0
   10.2006   -1.1760    0.0000 N   0  0  0  0  0  0  0  0  0  0  0  0
   17.3968   -1.1760    0.0000 N   0  0  0  0  0  0  0  0  0  0  0  0
   14.6962   -5.8100    0.0000 N   0  0  0  0  0  0  0  0  0  0  0  0
    6.5000   -5.3100    0.0000 N   0  0  0  0  0  0  0  0  0  0  0  0
    5.1026    4.6900    0.0000 N   0  0  0  0  0  0  0  0  0  0  0  0
   11.9641   -5.3100    0.0000 N   0  0  0  0  0  0  0  0  0  0  0  0
    9.2320   -5.8100    0.0000 N   0  0  0  0  0  0  0  0  0  0  0  0
    2.5000   -4.3100    0.0000 N   0  0  0  0  0  0  0  0  0  0  0  0
    9.7006    6.1900    0.0000 N   0  0  0  0  0  0  0  0  0  0  0  0
   11.4327    6.1900    0.0000 N   0  0  0  0  0  0  0  0  0  0  0  0
   11.7006   -2.0420    0.0000 N   0  0  0  0  0  0  0  0  0  0  0  0
   10.2007   -2.9080    0.0000 N   0  0  0  0  0  0  0  0  0  0  0  0
   18.8968   -2.0420    0.0000 N   0  0  0  0  0  0  0  0  0  0  0  0
   17.3969   -2.9080    0.0000 N   0  0  0  0  0  0  0  0  0  0  0  0
    4.2365    6.1900    0.0000 N   0  0  0  0  0  0  0  0  0  0  0  0
    5.9686    6.1900    0.0000 N   0  0  0  0  0  0  0  0  0  0  0  0
   12.2987    1.6900    0.0000 C   0  0  1  0  0  0  0  0  0  0  0  0
    9.5667    1.1900    0.0000 C   0  0  1  0  0  0  0  0  0  0  0  0
   12.2987    2.6900    0.0000 C   0  0  0  0  0  0  0  0  0  0  0  0
   15.0308    1.1900    0.0000 C   0  0  1  0  0  0  0  0  0  0  0  0
    9.5667    0.1900    0.0000 C   0  0  0  0  0  0  0  0  0  0  0  0
   11.4327    1.1900    0.0000 C   0  0  0  0  0  0  0  0  0  0  0  0
   15.0308    0.1900    0.0000 C   0  0  0  0  0  0  0  0  0  0  0  0
   11.4327    3.1900    0.0000 C   0  0  0  0  0  0  0  0  0  0  0  0
   14.1647    1.6900    0.0000 C   0  0  0  0  0  0  0  0  0  0  0  0
    8.7006   -0.3100    0.0000 C   0  0  0  0  0  0  0  0  0  0  0  0
    8.7006    1.6900    0.0000 C   0  0  0  0  0  0  0  0  0  0  0  0
   15.8968   -0.3100    0.0000 C   0  0  0  0  0  0  0  0  0  0  0  0
    6.8346    1.6900    0.0000 C   0  0  1  0  0  0  0  0  0  0  0  0
   11.4327    4.1900    0.0000 C   0  0  0  0  0  0  0  0  0  0  0  0
    6.8346    2.6900    0.0000 C   0  0  0  0  0  0  0  0  0  0  0  0
    9.2007   -1.1760    0.0000 C   0  0  0  0  0  0  0  0  0  0  0  0
   16.8968    1.1900    0.0000 C   0  0  0  0  0  0  0  0  0  0  0  0
   17.7628    1.6900    0.0000 C   0  0  2  0  0  0  0  0  0  0  0  0
   16.3969   -1.1760    0.0000 C   0  0  0  0  0  0  0  0  0  0  0  0
    5.9686    3.1900    0.0000 C   0  0  0  0  0  0  0  0  0  0  0  0
    5.9686    1.1900    0.0000 C   0  0  0  0  0  0  0  0  0  0  0  0
   17.7628    2.6900    0.0000 C   0  0  0  0  0  0  0  0  0  0  0  0
    5.9686    4.1900    0.0000 C   0  0  0  0  0  0  0  0  0  0  0  0
   15.5622   -5.3100    0.0000 C   0  0  2  0  0  0  0  0  0  0  0  0
   16.4282   -5.8100    0.0000 C   0  0  0  0  0  0  0  0  0  0  0  0
    5.5000   -4.3100    0.0000 C   0  0  0  0  0  0  0  0  0  0  0  0
    5.0000   -3.4440    0.0000 C   0  0  0  0  0  0  0  0  0  0  0  0
    7.3660   -5.8100    0.0000 C   0  0  2  0  0  0  0  0  0  0  0  0
   10.5667    5.6900    0.0000 C   0  0  0  0  0  0  0  0  0  0  0  0
    4.0000   -3.4440    0.0000 C   0  0  0  0  0  0  0  0  0  0  0  0
   15.5622   -4.3100    0.0000 C   0  0  0  0  0  0  0  0  0  0  0  0
   12.8301   -5.8100    0.0000 C   0  0  2  0  0  0  0  0  0  0  0  0
    3.5000   -4.3100    0.0000 C   0  0  0  0  0  0  0  0  0  0  0  0
   10.7006   -2.0420    0.0000 C   0  0  0  0  0  0  0  0  0  0  0  0
   13.6962   -5.3100    0.0000 C   0  0  0  0  0  0  0  0  0  0  0  0
   10.0981   -5.3100    0.0000 C   0  0  2  0  0  0  0  0  0  0  0  0
   17.8968   -2.0420    0.0000 C   0  0  0  0  0  0  0  0  0  0  0  0
    5.0000   -5.1760    0.0000 C   0  0  0  0  0  0  0  0  0  0  0  0
    8.2320   -5.3100    0.0000 C   0  0  0  0  0  0  0  0  0  0  0  0
    4.0000   -5.1760    0.0000 C   0  0  0  0  0  0  0  0  0  0  0  0
   10.9641   -5.8100    0.0000 C   0  0  0  0  0  0  0  0  0  0  0  0
    5.5347   -2.5500    0.0000 C   0  0  0  0  0  0  0  0  0  0  0  0
    7.3660   -6.8100    0.0000 C   0  0  0  0  0  0  0  0  0  0  0  0
    3.4653   -2.5500    0.0000 C   0  0  0  0  0  0  0  0  0  0  0  0
   12.8301   -6.8100    0.0000 C   0  0  0  0  0  0  0  0  0  0  0  0
   10.0981   -4.3100    0.0000 C   0  0  0  0  0  0  0  0  0  0  0  0
    5.0208   -1.6440    0.0000 C   0  0  0  0  0  0  0  0  0  0  0  0
    3.9792   -1.6440    0.0000 C   0  0  0  0  0  0  0  0  0  0  0  0
    5.1026    5.6900    0.0000 C   0  0  0  0  0  0  0  0  0  0  0  0
    2.0000   -5.1760    0.0000 C   0  0  0  0  0  0  0  0  0  0  0  0
    2.0000   -3.4440    0.0000 C   0  0  0  0  0  0  0  0  0  0  0  0
   12.8357    2.0000    0.0000 H   0  0  0  0  0  0  0  0  0  0  0  0
   10.1036    0.8800    0.0000 H   0  0  0  0  0  0  0  0  0  0  0  0
   12.9093    2.5823    0.0000 H   0  0  0  0  0  0  0  0  0  0  0  0
   12.5108    3.2726    0.0000 H   0  0  0  0  0  0  0  0  0  0  0  0
   15.5677    0.8800    0.0000 H   0  0  0  0  0  0  0  0  0  0  0  0
    9.7787   -0.3926    0.0000 H   0  0  0  0  0  0  0  0  0  0  0  0
   10.1772    0.2977    0.0000 H   0  0  0  0  0  0  0  0  0  0  0  0
   13.7017    0.8800    0.0000 H   0  0  0  0  0  0  0  0  0  0  0  0
   14.4202    0.2977    0.0000 H   0  0  0  0  0  0  0  0  0  0  0  0
   14.8187   -0.3926    0.0000 H   0  0  0  0  0  0  0  0  0  0  0  0
   10.9696    2.0000    0.0000 H   0  0  0  0  0  0  0  0  0  0  0  0
   10.8221    3.2977    0.0000 H   0  0  0  0  0  0  0  0  0  0  0  0
   11.2206    2.6074    0.0000 H   0  0  0  0  0  0  0  0  0  0  0  0
    8.3906    0.2269    0.0000 H   0  0  0  0  0  0  0  0  0  0  0  0
    8.1637   -0.6200    0.0000 H   0  0  0  0  0  0  0  0  0  0  0  0
   16.5074   -0.2023    0.0000 H   0  0  0  0  0  0  0  0  0  0  0  0
   15.4584   -0.7484    0.0000 H   0  0  0  0  0  0  0  0  0  0  0  0
   16.4337    2.0000    0.0000 H   0  0  0  0  0  0  0  0  0  0  0  0
    7.3716    2.0000    0.0000 H   0  0  0  0  0  0  0  0  0  0  0  0
    8.2376    0.8800    0.0000 H   0  0  0  0  0  0  0  0  0  0  0  0
   12.0433    4.0823    0.0000 H   0  0  0  0  0  0  0  0  0  0  0  0
   11.6447    4.7726    0.0000 H   0  0  0  0  0  0  0  0  0  0  0  0
    7.4452    2.5823    0.0000 H   0  0  0  0  0  0  0  0  0  0  0  0
    7.0467    3.2726    0.0000 H   0  0  0  0  0  0  0  0  0  0  0  0
    8.6181   -1.3881    0.0000 H   0  0  0  0  0  0  0  0  0  0  0  0
    9.3084   -1.7866    0.0000 H   0  0  0  0  0  0  0  0  0  0  0  0
   18.2998    2.0000    0.0000 H   0  0  0  0  0  0  0  0  0  0  0  0
   15.8143   -1.3881    0.0000 H   0  0  0  0  0  0  0  0  0  0  0  0
   16.5045   -1.7866    0.0000 H   0  0  0  0  0  0  0  0  0  0  0  0
    5.3580    3.2977    0.0000 H   0  0  0  0  0  0  0  0  0  0  0  0
    5.7565    2.6074    0.0000 H   0  0  0  0  0  0  0  0  0  0  0  0
   17.5508    3.2726    0.0000 H   0  0  0  0  0  0  0  0  0  0  0  0
   17.1522    2.5823    0.0000 H   0  0  0  0  0  0  0  0  0  0  0  0
   19.1658    0.8800    0.0000 H   0  0  0  0  0  0  0  0  0  0  0  0
    6.5792    4.0823    0.0000 H   0  0  0  0  0  0  0  0  0  0  0  0
    6.1806    4.7726    0.0000 H   0  0  0  0  0  0  0  0  0  0  0  0
   15.0252   -5.0000    0.0000 H   0  0  0  0  0  0  0  0  0  0  0  0
    6.8291   -6.1200    0.0000 H   0  0  0  0  0  0  0  0  0  0  0  0
   15.2331   -6.1200    0.0000 H   0  0  0  0  0  0  0  0  0  0  0  0
   16.1822   -4.3100    0.0000 H   0  0  0  0  0  0  0  0  0  0  0  0
   15.5622   -3.6900    0.0000 H   0  0  0  0  0  0  0  0  0  0  0  0
   14.9422   -4.3100    0.0000 H   0  0  0  0  0  0  0  0  0  0  0  0
   12.2932   -6.1200    0.0000 H   0  0  0  0  0  0  0  0  0  0  0  0
    7.0369   -5.6200    0.0000 H   0  0  0  0  0  0  0  0  0  0  0  0
    4.5656    1.3800    0.0000 H   0  0  0  0  0  0  0  0  0  0  0  0
    9.5611   -5.0000    0.0000 H   0  0  0  0  0  0  0  0  0  0  0  0
   18.6288    3.8100    0.0000 H   0  0  0  0  0  0  0  0  0  0  0  0
    5.3100   -5.7130    0.0000 H   0  0  0  0  0  0  0  0  0  0  0  0
    3.6900   -5.7130    0.0000 H   0  0  0  0  0  0  0  0  0  0  0  0
   12.5010   -5.0000    0.0000 H   0  0  0  0  0  0  0  0  0  0  0  0
    9.7690   -6.1200    0.0000 H   0  0  0  0  0  0  0  0  0  0  0  0
    6.1546   -2.5572    0.0000 H   0  0  0  0  0  0  0  0  0  0  0  0
    6.7460   -6.8100    0.0000 H   0  0  0  0  0  0  0  0  0  0  0  0
    7.3660   -7.4300    0.0000 H   0  0  0  0  0  0  0  0  0  0  0  0
    7.9860   -6.8100    0.0000 H   0  0  0  0  0  0  0  0  0  0  0  0
    2.8454   -2.5572    0.0000 H   0  0  0  0  0  0  0  0  0  0  0  0
   12.2101   -6.8100    0.0000 H   0  0  0  0  0  0  0  0  0  0  0  0
   12.8301   -7.4300    0.0000 H   0  0  0  0  0  0  0  0  0  0  0  0
   13.4501   -6.8100    0.0000 H   0  0  0  0  0  0  0  0  0  0  0  0
   10.7181   -4.3100    0.0000 H   0  0  0  0  0  0  0  0  0  0  0  0
   10.0981   -3.6900    0.0000 H   0  0  0  0  0  0  0  0  0  0  0  0
    9.4781   -4.3100    0.0000 H   0  0  0  0  0  0  0  0  0  0  0  0
    5.3329   -1.1082    0.0000 H   0  0  0  0  0  0  0  0  0  0  0  0
    3.6671   -1.1082    0.0000 H   0  0  0  0  0  0  0  0  0  0  0  0
    9.7006    6.8100    0.0000 H   0  0  0  0  0  0  0  0  0  0  0  0
    9.1637    5.8800    0.0000 H   0  0  0  0  0  0  0  0  0  0  0  0
   11.4327    6.8100    0.0000 H   0  0  0  0  0  0  0  0  0  0  0  0
   11.9696    5.8800    0.0000 H   0  0  0  0  0  0  0  0  0  0  0  0
   12.0106   -1.5051    0.0000 H   0  0  0  0  0  0  0  0  0  0  0  0
   12.0106   -2.5790    0.0000 H   0  0  0  0  0  0  0  0  0  0  0  0
   10.5107   -3.4450    0.0000 H   0  0  0  0  0  0  0  0  0  0  0  0
    9.5807   -2.9080    0.0000 H   0  0  0  0  0  0  0  0  0  0  0  0
    1.4631   -4.8660    0.0000 H   0  0  0  0  0  0  0  0  0  0  0  0
    1.6900   -5.7130    0.0000 H   0  0  0  0  0  0  0  0  0  0  0  0
    2.5369   -5.4860    0.0000 H   0  0  0  0  0  0  0  0  0  0  0  0
    2.5369   -3.1340    0.0000 H   0  0  0  0  0  0  0  0  0  0  0  0
    1.6900   -2.9070    0.0000 H   0  0  0  0  0  0  0  0  0  0  0  0
    1.4631   -3.7540    0.0000 H   0  0  0  0  0  0  0  0  0  0  0  0
   19.2068   -1.5051    0.0000 H   0  0  0  0  0  0  0  0  0  0  0  0
   19.2068   -2.5790    0.0000 H   0  0  0  0  0  0  0  0  0  0  0  0
   16.7769   -2.9080    0.0000 H   0  0  0  0  0  0  0  0  0  0  0  0
   17.7069   -3.4450    0.0000 H   0  0  0  0  0  0  0  0  0  0  0  0
    4.2365    6.8100    0.0000 H   0  0  0  0  0  0  0  0  0  0  0  0
    3.6996    5.8800    0.0000 H   0  0  0  0  0  0  0  0  0  0  0  0
    5.9686    6.8100    0.0000 H   0  0  0  0  0  0  0  0  0  0  0  0
    6.5055    5.8800    0.0000 H   0  0  0  0  0  0  0  0  0  0  0  0
  1 10  2  0  0  0  0
  1 11  2  0  0  0  0
  1 24  1  0  0  0  0
  1 62  1  0  0  0  0
  2 42  2  0  0  0  0
  3 45  2  0  0  0  0
  4 47  2  0  0  0  0
  5 53  2  0  0  0  0
  6 57  1  0  0  0  0
  6132  1  0  0  0  0
  7 58  1  0  0  0  0
  7134  1  0  0  0  0
  8 57  2  0  0  0  0
  9 61  2  0  0  0  0
 12 71  2  0  0  0  0
 13 75  2  0  0  0  0
 14 77  2  0  0  0  0
 37 15  1  6  0  0  0
 15 45  1  0  0  0  0
 15 95  1  0  0  0  0
 38 16  1  1  0  0  0
 16 42  1  0  0  0  0
 16 98  1  0  0  0  0
 40 17  1  1  0  0  0
 17 53  1  0  0  0  0
 17105  1  0  0  0  0
 18 47  1  0  0  0  0
 49 18  1  6  0  0  0
 18107  1  0  0  0  0
 54 19  1  6  0  0  0
 19 61  1  0  0  0  0
 19121  1  0  0  0  0
 20 50  1  0  0  0  0
 20 65  2  0  0  0  0
 21 52  1  0  0  0  0
 21 70  2  0  0  0  0
 22 55  1  0  0  0  0
 22 73  2  0  0  0  0
 60 23  1  1  0  0  0
 23 71  1  0  0  0  0
 23126  1  0  0  0  0
 64 24  1  6  0  0  0
 24131  1  0  0  0  0
 25 59  1  0  0  0  0
 25 85  2  0  0  0  0
 68 26  1  6  0  0  0
 26 77  1  0  0  0  0
 26137  1  0  0  0  0
 72 27  1  1  0  0  0
 27 75  1  0  0  0  0
 27138  1  0  0  0  0
 28 69  1  0  0  0  0
 28 86  1  0  0  0  0
 28 87  1  0  0  0  0
 29 65  1  0  0  0  0
 29152  1  0  0  0  0
 29153  1  0  0  0  0
 30 65  1  0  0  0  0
 30154  1  0  0  0  0
 30155  1  0  0  0  0
 31 70  1  0  0  0  0
 31156  1  0  0  0  0
 31157  1  0  0  0  0
 32 70  1  0  0  0  0
 32158  1  0  0  0  0
 32159  1  0  0  0  0
 33 73  1  0  0  0  0
 33166  1  0  0  0  0
 33167  1  0  0  0  0
 34 73  1  0  0  0  0
 34168  1  0  0  0  0
 34169  1  0  0  0  0
 35 85  1  0  0  0  0
 35170  1  0  0  0  0
 35171  1  0  0  0  0
 36 85  1  0  0  0  0
 36172  1  0  0  0  0
 36173  1  0  0  0  0
 37 39  1  0  0  0  0
 37 42  1  0  0  0  0
 37 88  1  0  0  0  0
 38 41  1  0  0  0  0
 38 47  1  0  0  0  0
 38 89  1  0  0  0  0
 39 44  1  0  0  0  0
 39 90  1  0  0  0  0
 39 91  1  0  0  0  0
 40 43  1  0  0  0  0
 40 45  1  0  0  0  0
 40 92  1  0  0  0  0
 41 46  1  0  0  0  0
 41 93  1  0  0  0  0
 41 94  1  0  0  0  0
 43 48  1  0  0  0  0
 43 96  1  0  0  0  0
 43 97  1  0  0  0  0
 44 50  1  0  0  0  0
 44 99  1  0  0  0  0
 44100  1  0  0  0  0
 46 52  1  0  0  0  0
 46101  1  0  0  0  0
 46102  1  0  0  0  0
 48 55  1  0  0  0  0
 48103  1  0  0  0  0
 48104  1  0  0  0  0
 49 51  1  0  0  0  0
 49 57  1  0  0  0  0
 49106  1  0  0  0  0
 50108  1  0  0  0  0
 50109  1  0  0  0  0
 51 56  1  0  0  0  0
 51110  1  0  0  0  0
 51111  1  0  0  0  0
 52112  1  0  0  0  0
 52113  1  0  0  0  0
 53 54  1  0  0  0  0
 54 58  1  0  0  0  0
 54114  1  0  0  0  0
 55115  1  0  0  0  0
 55116  1  0  0  0  0
 56 59  1  0  0  0  0
 56117  1  0  0  0  0
 56118  1  0  0  0  0
 58119  1  0  0  0  0
 58120  1  0  0  0  0
 59122  1  0  0  0  0
 59123  1  0  0  0  0
 60 61  1  0  0  0  0
 60 67  1  0  0  0  0
 60124  1  0  0  0  0
 62 63  1  0  0  0  0
 62 74  2  0  0  0  0
 63 66  1  0  0  0  0
 63 78  2  0  0  0  0
 64 75  1  0  0  0  0
 64 79  1  0  0  0  0
 64125  1  0  0  0  0
 66 69  1  0  0  0  0
 66 80  2  0  0  0  0
 67127  1  0  0  0  0
 67128  1  0  0  0  0
 67129  1  0  0  0  0
 68 71  1  0  0  0  0
 68 81  1  0  0  0  0
 68130  1  0  0  0  0
 69 76  2  0  0  0  0
 72 77  1  0  0  0  0
 72 82  1  0  0  0  0
 72133  1  0  0  0  0
 74 76  1  0  0  0  0
 74135  1  0  0  0  0
 76136  1  0  0  0  0
 78 83  1  0  0  0  0
 78139  1  0  0  0  0
 79140  1  0  0  0  0
 79141  1  0  0  0  0
 79142  1  0  0  0  0
 80 84  1  0  0  0  0
 80143  1  0  0  0  0
 81144  1  0  0  0  0
 81145  1  0  0  0  0
 81146  1  0  0  0  0
 82147  1  0  0  0  0
 82148  1  0  0  0  0
 82149  1  0  0  0  0
 83 84  2  0  0  0  0
 83150  1  0  0  0  0
 84151  1  0  0  0  0
 86160  1  0  0  0  0
 86161  1  0  0  0  0
 86162  1  0  0  0  0
 87163  1  0  0  0  0
 87164  1  0  0  0  0
 87165  1  0  0  0  0
M  END
> <PUBCHEM_COMPOUND_CID>
44378582

> <PUBCHEM_COMPOUND_CANONICALIZED>
1

> <PUBCHEM_CACTVS_COMPLEXITY>
2550

> <PUBCHEM_CACTVS_HBOND_ACCEPTOR>
19

> <PUBCHEM_CACTVS_HBOND_DONOR>
19

> <PUBCHEM_CACTVS_ROTATABLE_BOND>
38

> <PUBCHEM_CACTVS_SUBSKEYS>
AAADcfB//ABAAAAAAAAAAAAAAAAAAAAAAAAwYAAAAAAAAADBUAAAHgQQSAAADCjh2AYzycPAAgKoAiXSfHDCABEhAgAIiJmIZIgKcDbAkbGUYAhmtgDYyAeYkYAOgAQAwAAWAAAACAGAACwAAAAAAAAAAA==

> <PUBCHEM_IUPAC_OPENEYE_NAME>
(2S)-2-[[(2S)-2-[[(2S)-2-[[(2S)-2-[[(2S)-2-[[(2S)-2-[[(2S)-2-[[(2S)-2-[[(2S)-2-[[4-(dimethylamino)-1-naphthyl]sulfonylamino]propanoyl]amino]propanoyl]amino]propanoyl]amino]propanoyl]amino]-3-hydroxy-propanoyl]amino]-5-guanidino-pentanoyl]amino]-5-guanidino-pentanoyl]amino]-5-guanidino-pentanoyl]amino]-5-guanidino-pentanoic acid

> <PUBCHEM_IUPAC_CAS_NAME>
(2S)-5-(diaminomethylideneamino)-2-[[(2S)-5-(diaminomethylideneamino)-2-[[(2S)-5-(diaminomethylideneamino)-2-[[(2S)-5-(diaminomethylideneamino)-2-[[(2S)-2-[[(2S)-2-[[(2S)-2-[[(2S)-2-[[(2S)-2-[[4-(dimethylamino)-1-naphthalenyl]sulfonylamino]-1-oxopropyl]amino]-1-oxopropyl]amino]-1-oxopropyl]amino]-1-oxopropyl]amino]-3-hydroxy-1-oxopropyl]amino]-1-oxopentyl]amino]-1-oxopentyl]amino]-1-oxopentyl]amino]pentanoic acid

> <PUBCHEM_IUPAC_NAME_MARKUP>
(2<I>S</I>)-5-(diaminomethylideneamino)-2-[[(2<I>S</I>)-5-(diaminomethylideneamino)-2-[[(2<I>S</I>)-5-(diaminomethylideneamino)-2-[[(2<I>S</I>)-5-(diaminomethylideneamino)-2-[[(2<I>S</I>)-2-[[(2<I>S</I>)-2-[[(2<I>S</I>)-2-[[(2<I>S</I>)-2-[[(2<I>S</I>)-2-[[4-(dimethylamino)naphthalen-1-yl]sulfonylamino]propanoyl]amino]propanoyl]amino]propanoyl]amino]propanoyl]amino]-3-hydroxypropanoyl]amino]pentanoyl]amino]pentanoyl]amino]pentanoyl]amino]pentanoic acid

> <PUBCHEM_IUPAC_NAME>
(2S)-5-(diaminomethylideneamino)-2-[[(2S)-5-(diaminomethylideneamino)-2-[[(2S)-5-(diaminomethylideneamino)-2-[[(2S)-5-(diaminomethylideneamino)-2-[[(2S)-2-[[(2S)-2-[[(2S)-2-[[(2S)-2-[[(2S)-2-[[4-(dimethylamino)naphthalen-1-yl]sulfonylamino]propanoyl]amino]propanoyl]amino]propanoyl]amino]propanoyl]amino]-3-hydroxypropanoyl]amino]pentanoyl]amino]pentanoyl]amino]pentanoyl]amino]pentanoic acid

> <PUBCHEM_IUPAC_SYSTEMATIC_NAME>
(2S)-5-[bis(azanyl)methylideneamino]-2-[[(2S)-5-[bis(azanyl)methylideneamino]-2-[[(2S)-5-[bis(azanyl)methylideneamino]-2-[[(2S)-5-[bis(azanyl)methylideneamino]-2-[[(2S)-2-[[(2S)-2-[[(2S)-2-[[(2S)-2-[[(2S)-2-[[4-(dimethylamino)naphthalen-1-yl]sulfonylamino]propanoyl]amino]propanoyl]amino]propanoyl]amino]propanoyl]amino]-3-oxidanyl-propanoyl]amino]pentanoyl]amino]pentanoyl]amino]pentanoyl]amino]pentanoic acid

> <PUBCHEM_IUPAC_TRADITIONAL_NAME>
(2S)-2-[[(2S)-2-[[(2S)-2-[[(2S)-2-[[(2S)-2-[[(2S)-2-[[(2S)-2-[[(2S)-2-[[(2S)-2-[[4-(dimethylamino)-1-naphthyl]sulfonylamino]propanoyl]amino]propanoyl]amino]propanoyl]amino]propanoyl]amino]-3-hydroxy-propanoyl]amino]-5-guanidino-pentanoyl]amino]-5-guanidino-pentanoyl]amino]-5-guanidino-pentanoyl]amino]-5-guanidino-valeric acid

> <PUBCHEM_IUPAC_INCHI>
InChI=1S/C51H86N22O13S/c1-26(64-40(76)27(2)66-42(78)29(4)72-87(85,86)38-20-19-37(73(5)6)30-13-7-8-14-31(30)38)39(75)65-28(3)41(77)71-36(25-74)46(82)69-33(16-10-22-61-49(54)55)44(80)67-32(15-9-21-60-48(52)53)43(79)68-34(17-11-23-62-50(56)57)45(81)70-35(47(83)84)18-12-24-63-51(58)59/h7-8,13-14,19-20,26-29,32-36,72,74H,9-12,15-18,21-25H2,1-6H3,(H,64,76)(H,65,75)(H,66,78)(H,67,80)(H,68,79)(H,69,82)(H,70,81)(H,71,77)(H,83,84)(H4,52,53,60)(H4,54,55,61)(H4,56,57,62)(H4,58,59,63)/t26-,27-,28-,29-,32-,33-,34-,35-,36-/m0/s1

> <PUBCHEM_IUPAC_INCHIKEY>
GCAWYFDAIXGWEY-XBSIJLCBSA-N

> <PUBCHEM_XLOGP3_AA>
-5.6

> <PUBCHEM_EXACT_MASS>
1246.64654206

> <PUBCHEM_MOLECULAR_FORMULA>
C51H86N22O13S

> <PUBCHEM_MOLECULAR_WEIGHT>
1247.4

> <PUBCHEM_SMILES>
C[C@@H](C(=O)N[C@@H](C)C(=O)N[C@@H](CO)C(=O)N[C@@H](CCCN=C(N)N)C(=O)N[C@@H](CCCN=C(N)N)C(=O)N[C@@H](CCCN=C(N)N)C(=O)N[C@@H](CCCN=C(N)N)C(=O)O)NC(=O)[C@H](C)NC(=O)[C@H](C)NS(=O)(=O)C1=CC=C(C2=CC=CC=C21)N(C)C

> <PUBCHEM_OPENEYE_CAN_SMILES>
CC(C(=O)NC(C)C(=O)NC(CO)C(=O)NC(CCCN=C(N)N)C(=O)NC(CCCN=C(N)N)C(=O)NC(CCCN=C(N)N)C(=O)NC(CCCN=C(N)N)C(=O)O)NC(=O)C(C)NC(=O)C(C)NS(=O)(=O)C1=CC=C(C2=CC=CC=C21)N(C)C

> <PUBCHEM_OPENEYE_ISO_SMILES>
C[C@@H](C(=O)N[C@@H](C)C(=O)N[C@@H](CO)C(=O)N[C@@H](CCCN=C(N)N)C(=O)N[C@@H](CCCN=C(N)N)C(=O)N[C@@H](CCCN=C(N)N)C(=O)N[C@@H](CCCN=C(N)N)C(=O)O)NC(=O)[C@H](C)NC(=O)[C@H](C)NS(=O)(=O)C1=CC=C(C2=CC=CC=C21)N(C)C

> <PUBCHEM_CACTVS_TPSA>
606

> <PUBCHEM_MONOISOTOPIC_WEIGHT>
1246.64654206

> <PUBCHEM_TOTAL_CHARGE>
0

> <PUBCHEM_HEAVY_ATOM_COUNT>
87

> <PUBCHEM_ATOM_DEF_STEREO_COUNT>
9

> <PUBCHEM_ATOM_UDEF_STEREO_COUNT>
0

> <PUBCHEM_BOND_DEF_STEREO_COUNT>
0

> <PUBCHEM_BOND_UDEF_STEREO_COUNT>
0

> <PUBCHEM_ISOTOPIC_ATOM_COUNT>
0

> <PUBCHEM_COMPONENT_COUNT>
1

> <PUBCHEM_CACTVS_TAUTO_COUNT>
-1

> <PUBCHEM_COORDINATE_TYPE>
1
5
255

> <PUBCHEM_BONDANNOTATIONS>
37  15  6
38  16  5
40  17  5
49  18  6
54  19  6
60  23  5
64  24  6
68  26  6
72  27  5
62  63  8
62  74  8
63  66  8
63  78  8
66  69  8
66  80  8
69  76  8
74  76  8
78  83  8
80  84  8
83  84  8

$$$$
