49831022
  -OEChem-03202501322D

 22 23  0     0  0  0  0  0  0999 V2000
    5.7240   -2.0598    0.0000 O   0  0  0  0  0  0  0  0  0  0  0  0
    6.0812   -0.3650    0.0000 N   0  0  0  0  0  0  0  0  0  0  0  0
    6.6648    0.4398    0.0000 N   0  0  0  0  0  0  0  0  0  0  0  0
    2.5369    1.4398    0.0000 N   0  0  0  0  0  0  0  0  0  0  0  0
    5.1350   -0.0602    0.0000 C   0  0  0  0  0  0  0  0  0  0  0  0
    5.1350    0.9398    0.0000 C   0  0  0  0  0  0  0  0  0  0  0  0
    4.2690   -0.5602    0.0000 C   0  0  0  0  0  0  0  0  0  0  0  0
    4.2690    1.4398    0.0000 C   0  0  0  0  0  0  0  0  0  0  0  0
    6.0812    1.2445    0.0000 C   0  0  0  0  0  0  0  0  0  0  0  0
    3.4030    0.9398    0.0000 C   0  0  0  0  0  0  0  0  0  0  0  0
    3.4030   -0.0602    0.0000 C   0  0  0  0  0  0  0  0  0  0  0  0
    6.3919   -1.3155    0.0000 C   0  0  0  0  0  0  0  0  0  0  0  0
    7.3704   -1.5217    0.0000 C   0  0  0  0  0  0  0  0  0  0  0  0
    4.2690   -1.1802    0.0000 H   0  0  0  0  0  0  0  0  0  0  0  0
    4.2690    2.0598    0.0000 H   0  0  0  0  0  0  0  0  0  0  0  0
    6.2738    1.8338    0.0000 H   0  0  0  0  0  0  0  0  0  0  0  0
    2.8660   -0.3702    0.0000 H   0  0  0  0  0  0  0  0  0  0  0  0
    7.2425   -2.1284    0.0000 H   0  0  0  0  0  0  0  0  0  0  0  0
    7.9771   -1.6496    0.0000 H   0  0  0  0  0  0  0  0  0  0  0  0
    7.4983   -0.9150    0.0000 H   0  0  0  0  0  0  0  0  0  0  0  0
    2.0000    1.1298    0.0000 H   0  0  0  0  0  0  0  0  0  0  0  0
    2.5369    2.0598    0.0000 H   0  0  0  0  0  0  0  0  0  0  0  0
  1 12  2  0  0  0  0
  2  3  1  0  0  0  0
  2  5  1  0  0  0  0
  2 12  1  0  0  0  0
  3  9  2  0  0  0  0
  4 10  1  0  0  0  0
  4 21  1  0  0  0  0
  4 22  1  0  0  0  0
  5  6  2  0  0  0  0
  5  7  1  0  0  0  0
  6  8  1  0  0  0  0
  6  9  1  0  0  0  0
  7 11  2  0  0  0  0
  7 14  1  0  0  0  0
  8 10  2  0  0  0  0
  8 15  1  0  0  0  0
  9 16  1  0  0  0  0
 10 11  1  0  0  0  0
 11 17  1  0  0  0  0
 12 13  1  0  0  0  0
 13 18  1  0  0  0  0
 13 19  1  0  0  0  0
 13 20  1  0  0  0  0
M  END
> <PUBCHEM_COMPOUND_CID>
49831022

> <PUBCHEM_COMPOUND_CANONICALIZED>
1

> <PUBCHEM_CACTVS_COMPLEXITY>
219

> <PUBCHEM_CACTVS_HBOND_ACCEPTOR>
3

> <PUBCHEM_CACTVS_HBOND_DONOR>
1

> <PUBCHEM_CACTVS_ROTATABLE_BOND>
0

> <PUBCHEM_CACTVS_SUBSKEYS>
AAADccBzIAAAAAAAAAAAAAAAAAAAAWAAAAAwAAAAAAAAAFgB8AAAHgAYAAAADAjBngQ+wPJIAACqAzV3VACSBAAhggAamCAwZJgIIKLA0dGEpAhgnADIyAcQgAAOAACAQAACAAAAAQCAAAQAAAAAAAAAAA==

> <PUBCHEM_IUPAC_OPENEYE_NAME>
1-(5-aminoindazol-1-yl)ethanone

> <PUBCHEM_IUPAC_CAS_NAME>
1-(5-amino-1-indazolyl)ethanone

> <PUBCHEM_IUPAC_NAME_MARKUP>
1-(5-aminoindazol-1-yl)ethanone

> <PUBCHEM_IUPAC_NAME>
1-(5-aminoindazol-1-yl)ethanone

> <PUBCHEM_IUPAC_SYSTEMATIC_NAME>
1-(5-azanylindazol-1-yl)ethanone

> <PUBCHEM_IUPAC_TRADITIONAL_NAME>
1-(5-aminoindazol-1-yl)ethanone

> <PUBCHEM_IUPAC_INCHI>
InChI=1S/C9H9N3O/c1-6(13)12-9-3-2-8(10)4-7(9)5-11-12/h2-5H,10H2,1H3

> <PUBCHEM_IUPAC_INCHIKEY>
ZDDSNBRCOKAKNO-UHFFFAOYSA-N

> <PUBCHEM_XLOGP3_AA>
0.8

> <PUBCHEM_EXACT_MASS>
175.074561919

> <PUBCHEM_MOLECULAR_FORMULA>
C9H9N3O

> <PUBCHEM_MOLECULAR_WEIGHT>
175.19

> <PUBCHEM_SMILES>
CC(=O)N1C2=C(C=C(C=C2)N)C=N1

> <PUBCHEM_OPENEYE_CAN_SMILES>
CC(=O)N1C2=C(C=C(C=C2)N)C=N1

> <PUBCHEM_OPENEYE_ISO_SMILES>
CC(=O)N1C2=C(C=C(C=C2)N)C=N1

> <PUBCHEM_CACTVS_TPSA>
60.9

> <PUBCHEM_MONOISOTOPIC_WEIGHT>
175.074561919

> <PUBCHEM_TOTAL_CHARGE>
0

> <PUBCHEM_HEAVY_ATOM_COUNT>
13

> <PUBCHEM_ATOM_DEF_STEREO_COUNT>
0

> <PUBCHEM_ATOM_UDEF_STEREO_COUNT>
0

> <PUBCHEM_BOND_DEF_STEREO_COUNT>
0

> <PUBCHEM_BOND_UDEF_STEREO_COUNT>
0

> <PUBCHEM_ISOTOPIC_ATOM_COUNT>
0

> <PUBCHEM_COMPONENT_COUNT>
1

> <PUBCHEM_CACTVS_TAUTO_COUNT>
-1

> <PUBCHEM_COORDINATE_TYPE>
1
5
255

> <PUBCHEM_BONDANNOTATIONS>
10  11  8
2  3  8
2  5  8
3  9  8
5  6  8
5  7  8
6  8  8
6  9  8
7  11  8
8  10  8

$$$$
