49830640
  -OEChem-03202501562D

 42 45  0     1  0  0  0  0  0999 V2000
    9.9206    3.4849    0.0000 F   0  0  0  0  0  0  0  0  0  0  0  0
    8.9887    0.6333    0.0000 N   0  0  0  0  0  0  0  0  0  0  0  0
    6.4103   -1.6802    0.0000 N   0  0  0  0  0  0  0  0  0  0  0  0
    7.6995   -0.5234    0.0000 N   0  0  0  0  0  0  0  0  0  0  0  0
    6.4103   -3.2896    0.0000 N   0  0  0  0  0  0  0  0  0  0  0  0
    6.3638    0.9652    0.0000 N   0  0  0  0  0  0  0  0  0  0  0  0
    2.0000   -0.9849    0.0000 N   0  0  0  0  0  0  0  0  0  0  0  0
    9.2993    1.5838    0.0000 C   0  0  3  0  0  0  0  0  0  0  0  0
   10.2778    1.7901    0.0000 C   0  0  0  0  0  0  0  0  0  0  0  0
    5.4641   -1.9849    0.0000 C   0  0  0  0  0  0  0  0  0  0  0  0
    8.6315    2.3282    0.0000 C   0  0  0  0  0  0  0  0  0  0  0  0
    8.0102    0.4271    0.0000 C   0  0  0  0  0  0  0  0  0  0  0  0
    6.7210   -0.7296    0.0000 C   0  0  0  0  0  0  0  0  0  0  0  0
    5.4641   -2.9849    0.0000 C   0  0  0  0  0  0  0  0  0  0  0  0
   10.5885    2.7406    0.0000 C   0  0  0  0  0  0  0  0  0  0  0  0
   10.9457    1.0458    0.0000 C   0  0  0  0  0  0  0  0  0  0  0  0
    6.9939   -2.4849    0.0000 C   0  0  0  0  0  0  0  0  0  0  0  0
    4.5981   -1.4849    0.0000 C   0  0  0  0  0  0  0  0  0  0  0  0
    4.5981   -3.4849    0.0000 C   0  0  0  0  0  0  0  0  0  0  0  0
    7.3423    1.1714    0.0000 C   0  0  0  0  0  0  0  0  0  0  0  0
    6.0531    0.0147    0.0000 C   0  0  0  0  0  0  0  0  0  0  0  0
    3.7320   -1.9849    0.0000 C   0  0  0  0  0  0  0  0  0  0  0  0
   11.5670    2.9468    0.0000 C   0  0  0  0  0  0  0  0  0  0  0  0
   11.9242    1.2520    0.0000 C   0  0  0  0  0  0  0  0  0  0  0  0
    3.7320   -2.9849    0.0000 C   0  0  0  0  0  0  0  0  0  0  0  0
   12.2348    2.2025    0.0000 C   0  0  0  0  0  0  0  0  0  0  0  0
    2.8660   -1.4849    0.0000 C   0  0  0  0  0  0  0  0  0  0  0  0
    9.7134    1.1224    0.0000 H   0  0  0  0  0  0  0  0  0  0  0  0
    9.4027    0.1719    0.0000 H   0  0  0  0  0  0  0  0  0  0  0  0
    9.0929    2.7422    0.0000 H   0  0  0  0  0  0  0  0  0  0  0  0
    8.2174    2.7896    0.0000 H   0  0  0  0  0  0  0  0  0  0  0  0
    8.1700    1.9141    0.0000 H   0  0  0  0  0  0  0  0  0  0  0  0
   10.7531    0.4564    0.0000 H   0  0  0  0  0  0  0  0  0  0  0  0
    7.6139   -2.4849    0.0000 H   0  0  0  0  0  0  0  0  0  0  0  0
    4.5981   -0.8649    0.0000 H   0  0  0  0  0  0  0  0  0  0  0  0
    4.5981   -4.1049    0.0000 H   0  0  0  0  0  0  0  0  0  0  0  0
    7.5349    1.7607    0.0000 H   0  0  0  0  0  0  0  0  0  0  0  0
    5.4465   -0.1132    0.0000 H   0  0  0  0  0  0  0  0  0  0  0  0
    3.1951   -3.2949    0.0000 H   0  0  0  0  0  0  0  0  0  0  0  0
   11.7596    3.5361    0.0000 H   0  0  0  0  0  0  0  0  0  0  0  0
   12.3382    0.7905    0.0000 H   0  0  0  0  0  0  0  0  0  0  0  0
   12.8415    2.3304    0.0000 H   0  0  0  0  0  0  0  0  0  0  0  0
  1 15  1  0  0  0  0
  2  8  1  0  0  0  0
  2 12  1  0  0  0  0
  2 29  1  0  0  0  0
  3 10  1  0  0  0  0
  3 13  1  0  0  0  0
  3 17  1  0  0  0  0
  4 12  1  0  0  0  0
  4 13  2  0  0  0  0
  5 14  1  0  0  0  0
  5 17  2  0  0  0  0
  6 20  1  0  0  0  0
  6 21  2  0  0  0  0
  7 27  3  0  0  0  0
  8  9  1  0  0  0  0
  8 11  1  0  0  0  0
  8 28  1  0  0  0  0
  9 15  1  0  0  0  0
  9 16  2  0  0  0  0
 10 14  2  0  0  0  0
 10 18  1  0  0  0  0
 11 30  1  0  0  0  0
 11 31  1  0  0  0  0
 11 32  1  0  0  0  0
 12 20  2  0  0  0  0
 13 21  1  0  0  0  0
 14 19  1  0  0  0  0
 15 23  2  0  0  0  0
 16 24  1  0  0  0  0
 16 33  1  0  0  0  0
 17 34  1  0  0  0  0
 18 22  2  0  0  0  0
 18 35  1  0  0  0  0
 19 25  2  0  0  0  0
 19 36  1  0  0  0  0
 20 37  1  0  0  0  0
 21 38  1  0  0  0  0
 22 25  1  0  0  0  0
 22 27  1  0  0  0  0
 23 26  1  0  0  0  0
 23 40  1  0  0  0  0
 24 26  2  0  0  0  0
 24 41  1  0  0  0  0
 25 39  1  0  0  0  0
 26 42  1  0  0  0  0
M  END
> <PUBCHEM_COMPOUND_CID>
49830640

> <PUBCHEM_COMPOUND_CANONICALIZED>
1

> <PUBCHEM_CACTVS_COMPLEXITY>
550

> <PUBCHEM_CACTVS_HBOND_ACCEPTOR>
6

> <PUBCHEM_CACTVS_HBOND_DONOR>
1

> <PUBCHEM_CACTVS_ROTATABLE_BOND>
4

> <PUBCHEM_CACTVS_SUBSKEYS>
AAADccB7gQAAAAAAAAAAAAAAAAAAAWAAAAA8YIAAAAAAAFgB/AAAHQAQAAAADCjBHgw/8LfMEACwBzZnZACigC0xEqAJ2KA4dJiI6OLAmZGUIAhokALIyC8QgIAOCAAAQAAAACAQAACAAAAAQAAAAAAAAA==

> <PUBCHEM_IUPAC_OPENEYE_NAME>
3-[6-[1-(2-fluorophenyl)ethylamino]pyrazin-2-yl]benzimidazole-5-carbonitrile

> <PUBCHEM_IUPAC_CAS_NAME>
3-[6-[1-(2-fluorophenyl)ethylamino]-2-pyrazinyl]-5-benzimidazolecarbonitrile

> <PUBCHEM_IUPAC_NAME_MARKUP>
3-[6-[1-(2-fluorophenyl)ethylamino]pyrazin-2-yl]benzimidazole-5-carbonitrile

> <PUBCHEM_IUPAC_NAME>
3-[6-[1-(2-fluorophenyl)ethylamino]pyrazin-2-yl]benzimidazole-5-carbonitrile

> <PUBCHEM_IUPAC_SYSTEMATIC_NAME>
3-[6-[1-(2-fluorophenyl)ethylamino]pyrazin-2-yl]benzimidazole-5-carbonitrile

> <PUBCHEM_IUPAC_TRADITIONAL_NAME>
3-[6-[1-(2-fluorophenyl)ethylamino]pyrazin-2-yl]benzimidazole-5-carbonitrile

> <PUBCHEM_IUPAC_INCHI>
InChI=1S/C20H15FN6/c1-13(15-4-2-3-5-16(15)21)25-19-10-23-11-20(26-19)27-12-24-17-7-6-14(9-22)8-18(17)27/h2-8,10-13H,1H3,(H,25,26)

> <PUBCHEM_IUPAC_INCHIKEY>
HZPACYSNLOCDLW-UHFFFAOYSA-N

> <PUBCHEM_XLOGP3_AA>
3.3

> <PUBCHEM_EXACT_MASS>
358.13422267

> <PUBCHEM_MOLECULAR_FORMULA>
C20H15FN6

> <PUBCHEM_MOLECULAR_WEIGHT>
358.4

> <PUBCHEM_SMILES>
CC(C1=CC=CC=C1F)NC2=CN=CC(=N2)N3C=NC4=C3C=C(C=C4)C#N

> <PUBCHEM_OPENEYE_CAN_SMILES>
CC(C1=CC=CC=C1F)NC2=CN=CC(=N2)N3C=NC4=C3C=C(C=C4)C#N

> <PUBCHEM_OPENEYE_ISO_SMILES>
CC(C1=CC=CC=C1F)NC2=CN=CC(=N2)N3C=NC4=C3C=C(C=C4)C#N

> <PUBCHEM_CACTVS_TPSA>
79.4

> <PUBCHEM_MONOISOTOPIC_WEIGHT>
358.13422267

> <PUBCHEM_TOTAL_CHARGE>
0

> <PUBCHEM_HEAVY_ATOM_COUNT>
27

> <PUBCHEM_ATOM_DEF_STEREO_COUNT>
0

> <PUBCHEM_ATOM_UDEF_STEREO_COUNT>
1

> <PUBCHEM_BOND_DEF_STEREO_COUNT>
0

> <PUBCHEM_BOND_UDEF_STEREO_COUNT>
0

> <PUBCHEM_ISOTOPIC_ATOM_COUNT>
0

> <PUBCHEM_COMPONENT_COUNT>
1

> <PUBCHEM_CACTVS_TAUTO_COUNT>
-1

> <PUBCHEM_COORDINATE_TYPE>
1
5
255

> <PUBCHEM_BONDANNOTATIONS>
10  14  8
10  18  8
12  20  8
13  21  8
14  19  8
15  23  8
16  24  8
18  22  8
19  25  8
22  25  8
23  26  8
24  26  8
3  10  8
3  17  8
4  12  8
4  13  8
5  14  8
5  17  8
6  20  8
6  21  8
8  11  3
9  15  8
9  16  8

$$$$
