11537943
  -OEChem-03202500552D

 41 44  0     0  0  0  0  0  0999 V2000
   10.4563    4.3634    0.0000 F   0  0  0  0  0  0  0  0  0  0  0  0
   11.0961    3.1022    0.0000 F   0  0  0  0  0  0  0  0  0  0  0  0
    9.1951    3.7235    0.0000 F   0  0  0  0  0  0  0  0  0  0  0  0
    4.6783   -3.7741    0.0000 N   0  0  0  0  0  0  0  0  0  0  0  0
    7.2566    0.1489    0.0000 N   0  0  0  0  0  0  0  0  0  0  0  0
    2.8660   -3.9693    0.0000 N   0  0  0  0  0  0  0  0  0  0  0  0
    4.3211   -0.4698    0.0000 N   0  0  0  0  0  0  0  0  0  0  0  0
    5.6103    0.6870    0.0000 N   0  0  0  0  0  0  0  0  0  0  0  0
    4.6783   -2.1646    0.0000 C   0  0  0  0  0  0  0  0  0  0  0  0
    3.7320   -2.4693    0.0000 C   0  0  0  0  0  0  0  0  0  0  0  0
    3.7320   -3.4693    0.0000 C   0  0  0  0  0  0  0  0  0  0  0  0
    4.9889   -1.2141    0.0000 C   0  0  0  0  0  0  0  0  0  0  0  0
    7.5673    1.0994    0.0000 C   0  0  0  0  0  0  0  0  0  0  0  0
    8.5458    1.3056    0.0000 C   0  0  0  0  0  0  0  0  0  0  0  0
    5.2619   -2.9693    0.0000 C   0  0  0  0  0  0  0  0  0  0  0  0
    6.2781   -0.0573    0.0000 C   0  0  0  0  0  0  0  0  0  0  0  0
    5.9674   -1.0079    0.0000 C   0  0  0  0  0  0  0  0  0  0  0  0
    2.8660   -1.9693    0.0000 C   0  0  0  0  0  0  0  0  0  0  0  0
    8.8564    2.2561    0.0000 C   0  0  0  0  0  0  0  0  0  0  0  0
    9.8349    2.4623    0.0000 C   0  0  0  0  0  0  0  0  0  0  0  0
    9.2136    0.5613    0.0000 C   0  0  0  0  0  0  0  0  0  0  0  0
   10.5028    1.7180    0.0000 C   0  0  0  0  0  0  0  0  0  0  0  0
    2.0000   -2.4693    0.0000 C   0  0  0  0  0  0  0  0  0  0  0  0
   10.1921    0.7675    0.0000 C   0  0  0  0  0  0  0  0  0  0  0  0
    2.0000   -3.4693    0.0000 C   0  0  0  0  0  0  0  0  0  0  0  0
   10.1456    3.4129    0.0000 C   0  0  0  0  0  0  0  0  0  0  0  0
    4.6318    0.4807    0.0000 C   0  0  0  0  0  0  0  0  0  0  0  0
    7.5467    1.7190    0.0000 H   0  0  0  0  0  0  0  0  0  0  0  0
    6.9534    1.1867    0.0000 H   0  0  0  0  0  0  0  0  0  0  0  0
    5.8819   -2.9693    0.0000 H   0  0  0  0  0  0  0  0  0  0  0  0
    4.8709   -4.3634    0.0000 H   0  0  0  0  0  0  0  0  0  0  0  0
    6.3815   -1.4693    0.0000 H   0  0  0  0  0  0  0  0  0  0  0  0
    7.6707   -0.3126    0.0000 H   0  0  0  0  0  0  0  0  0  0  0  0
    2.8660   -1.3493    0.0000 H   0  0  0  0  0  0  0  0  0  0  0  0
    8.4424    2.7176    0.0000 H   0  0  0  0  0  0  0  0  0  0  0  0
    9.0210   -0.0280    0.0000 H   0  0  0  0  0  0  0  0  0  0  0  0
   11.1095    1.8459    0.0000 H   0  0  0  0  0  0  0  0  0  0  0  0
    1.4631   -2.1593    0.0000 H   0  0  0  0  0  0  0  0  0  0  0  0
   10.6062    0.3061    0.0000 H   0  0  0  0  0  0  0  0  0  0  0  0
    1.4631   -3.7793    0.0000 H   0  0  0  0  0  0  0  0  0  0  0  0
    4.2177    0.9422    0.0000 H   0  0  0  0  0  0  0  0  0  0  0  0
  1 26  1  0  0  0  0
  2 26  1  0  0  0  0
  3 26  1  0  0  0  0
  4 11  1  0  0  0  0
  4 15  1  0  0  0  0
  4 31  1  0  0  0  0
  5 13  1  0  0  0  0
  5 16  1  0  0  0  0
  5 33  1  0  0  0  0
  6 11  1  0  0  0  0
  6 25  2  0  0  0  0
  7 12  1  0  0  0  0
  7 27  2  0  0  0  0
  8 16  2  0  0  0  0
  8 27  1  0  0  0  0
  9 10  1  0  0  0  0
  9 12  1  0  0  0  0
  9 15  2  0  0  0  0
 10 11  2  0  0  0  0
 10 18  1  0  0  0  0
 12 17  2  0  0  0  0
 13 14  1  0  0  0  0
 13 28  1  0  0  0  0
 13 29  1  0  0  0  0
 14 19  2  0  0  0  0
 14 21  1  0  0  0  0
 15 30  1  0  0  0  0
 16 17  1  0  0  0  0
 17 32  1  0  0  0  0
 18 23  2  0  0  0  0
 18 34  1  0  0  0  0
 19 20  1  0  0  0  0
 19 35  1  0  0  0  0
 20 22  2  0  0  0  0
 20 26  1  0  0  0  0
 21 24  2  0  0  0  0
 21 36  1  0  0  0  0
 22 24  1  0  0  0  0
 22 37  1  0  0  0  0
 23 25  1  0  0  0  0
 23 38  1  0  0  0  0
 24 39  1  0  0  0  0
 25 40  1  0  0  0  0
 27 41  1  0  0  0  0
M  END
> <PUBCHEM_COMPOUND_CID>
11537943

> <PUBCHEM_COMPOUND_CANONICALIZED>
1

> <PUBCHEM_CACTVS_COMPLEXITY>
488

> <PUBCHEM_CACTVS_HBOND_ACCEPTOR>
7

> <PUBCHEM_CACTVS_HBOND_DONOR>
2

> <PUBCHEM_CACTVS_ROTATABLE_BOND>
4

> <PUBCHEM_CACTVS_SUBSKEYS>
AAADccB7gYAAAAAAAAAAAAAAAAAAAWAAAAA8WIAAAAAAAFgB/gAAHQAQAAAADAjBHxQ9sN7JkACgAzZnZACCgCmxAqAJ2aA4ZJiIKOLA2dGEJAhokALIyCcQgMAOgAACAAAAAAAAAAQAAAAAAAAAAAAAAA==

> <PUBCHEM_IUPAC_OPENEYE_NAME>
6-(1H-pyrrolo[2,3-b]pyridin-3-yl)-N-[[3-(trifluoromethyl)phenyl]methyl]pyrimidin-4-amine

> <PUBCHEM_IUPAC_CAS_NAME>
6-(1H-pyrrolo[2,3-b]pyridin-3-yl)-N-[[3-(trifluoromethyl)phenyl]methyl]-4-pyrimidinamine

> <PUBCHEM_IUPAC_NAME_MARKUP>
6-(1<I>H</I>-pyrrolo[2,3-b]pyridin-3-yl)-<I>N</I>-[[3-(trifluoromethyl)phenyl]methyl]pyrimidin-4-amine

> <PUBCHEM_IUPAC_NAME>
6-(1H-pyrrolo[2,3-b]pyridin-3-yl)-N-[[3-(trifluoromethyl)phenyl]methyl]pyrimidin-4-amine

> <PUBCHEM_IUPAC_SYSTEMATIC_NAME>
6-(1H-pyrrolo[2,3-b]pyridin-3-yl)-N-[[3-(trifluoromethyl)phenyl]methyl]pyrimidin-4-amine

> <PUBCHEM_IUPAC_TRADITIONAL_NAME>
[6-(1H-pyrrolo[2,3-b]pyridin-3-yl)pyrimidin-4-yl]-[3-(trifluoromethyl)benzyl]amine

> <PUBCHEM_IUPAC_INCHI>
InChI=1S/C19H14F3N5/c20-19(21,22)13-4-1-3-12(7-13)9-24-17-8-16(26-11-27-17)15-10-25-18-14(15)5-2-6-23-18/h1-8,10-11H,9H2,(H,23,25)(H,24,26,27)

> <PUBCHEM_IUPAC_INCHIKEY>
KBDRSPRFXNCQAM-UHFFFAOYSA-N

> <PUBCHEM_XLOGP3_AA>
4

> <PUBCHEM_EXACT_MASS>
369.12012995

> <PUBCHEM_MOLECULAR_FORMULA>
C19H14F3N5

> <PUBCHEM_MOLECULAR_WEIGHT>
369.3

> <PUBCHEM_SMILES>
C1=CC(=CC(=C1)C(F)(F)F)CNC2=NC=NC(=C2)C3=CNC4=C3C=CC=N4

> <PUBCHEM_OPENEYE_CAN_SMILES>
C1=CC(=CC(=C1)C(F)(F)F)CNC2=NC=NC(=C2)C3=CNC4=C3C=CC=N4

> <PUBCHEM_OPENEYE_ISO_SMILES>
C1=CC(=CC(=C1)C(F)(F)F)CNC2=NC=NC(=C2)C3=CNC4=C3C=CC=N4

> <PUBCHEM_CACTVS_TPSA>
66.5

> <PUBCHEM_MONOISOTOPIC_WEIGHT>
369.12012995

> <PUBCHEM_TOTAL_CHARGE>
0

> <PUBCHEM_HEAVY_ATOM_COUNT>
27

> <PUBCHEM_ATOM_DEF_STEREO_COUNT>
0

> <PUBCHEM_ATOM_UDEF_STEREO_COUNT>
0

> <PUBCHEM_BOND_DEF_STEREO_COUNT>
0

> <PUBCHEM_BOND_UDEF_STEREO_COUNT>
0

> <PUBCHEM_ISOTOPIC_ATOM_COUNT>
0

> <PUBCHEM_COMPONENT_COUNT>
1

> <PUBCHEM_CACTVS_TAUTO_COUNT>
-1

> <PUBCHEM_COORDINATE_TYPE>
1
5
255

> <PUBCHEM_BONDANNOTATIONS>
10  11  8
10  18  8
12  17  8
14  19  8
14  21  8
16  17  8
18  23  8
19  20  8
20  22  8
21  24  8
22  24  8
23  25  8
4  11  8
4  15  8
6  11  8
6  25  8
7  12  8
7  27  8
8  16  8
8  27  8
9  10  8
9  15  8

$$$$
