44352817
  -OEChem-03202505362D

 66 73  0     1  0  0  0  0  0999 V2000
   13.6568    0.1340    0.0000 F   0  0  0  0  0  0  0  0  0  0  0  0
   12.9497    1.3587    0.0000 F   0  0  0  0  0  0  0  0  0  0  0  0
   12.4321   -0.5731    0.0000 F   0  0  0  0  0  0  0  0  0  0  0  0
    7.5253    2.3172    0.0000 O   0  0  0  0  0  0  0  0  0  0  0  0
    9.3271   -1.4246    0.0000 O   0  0  0  0  0  0  0  0  0  0  0  0
    2.2501    0.6180    0.0000 O   0  0  0  0  0  0  0  0  0  0  0  0
   11.4661    1.6176    0.0000 O   0  0  0  0  0  0  0  0  0  0  0  0
    6.9273   -0.6474    0.0000 N   0  0  0  0  0  0  0  0  0  0  0  0
    6.2433    1.2320    0.0000 N   0  0  0  0  0  0  0  0  0  0  0  0
   11.0179   -0.0555    0.0000 N   0  0  0  0  0  0  0  0  0  0  0  0
    2.5826   -1.1645    0.0000 N   0  0  0  0  0  0  0  0  0  0  0  0
    8.0031    0.3687    0.0000 C   0  0  1  0  0  0  0  0  0  0  0  0
    9.2748   -0.4260    0.0000 C   0  0  2  0  0  0  0  0  0  0  0  0
    8.2619    1.3346    0.0000 C   0  0  2  0  0  0  0  0  0  0  0  0
   10.0519    0.2034    0.0000 C   0  0  2  0  0  0  0  0  0  0  0  0
    9.6936    1.1369    0.0000 C   0  0  0  0  0  0  0  0  0  0  0  0
    5.9425   -0.4737    0.0000 C   0  0  0  0  0  0  0  0  0  0  0  0
    5.6005    0.4660    0.0000 C   0  0  0  0  0  0  0  0  0  0  0  0
    5.2853   -1.2819    0.0000 C   0  0  0  0  0  0  0  0  0  0  0  0
    4.5776    0.6626    0.0000 C   0  0  0  0  0  0  0  0  0  0  0  0
    6.9003   -1.6408    0.0000 C   0  0  0  0  0  0  0  0  0  0  0  0
    7.7443   -0.5972    0.0000 C   0  0  0  0  0  0  0  0  0  0  0  0
    5.5840    1.9757    0.0000 C   0  0  0  0  0  0  0  0  0  0  0  0
    5.9733   -1.9990    0.0000 C   0  0  0  0  0  0  0  0  0  0  0  0
    4.2582   -1.1089    0.0000 C   0  0  0  0  0  0  0  0  0  0  0  0
    3.9019   -0.1301    0.0000 C   0  0  0  0  0  0  0  0  0  0  0  0
    4.6436    1.6543    0.0000 C   0  0  0  0  0  0  0  0  0  0  0  0
    3.4406   -1.7443    0.0000 C   0  0  0  0  0  0  0  0  0  0  0  0
    7.7162   -2.2780    0.0000 C   0  0  0  0  0  0  0  0  0  0  0  0
    2.8672   -0.1689    0.0000 C   0  0  0  0  0  0  0  0  0  0  0  0
    5.7995    2.9882    0.0000 C   0  0  0  0  0  0  0  0  0  0  0  0
    5.7979   -3.0193    0.0000 C   0  0  0  0  0  0  0  0  0  0  0  0
   11.2767   -1.0214    0.0000 C   0  0  0  0  0  0  0  0  0  0  0  0
    3.8535    2.3231    0.0000 C   0  0  0  0  0  0  0  0  0  0  0  0
   11.7250    0.6516    0.0000 C   0  0  0  0  0  0  0  0  0  0  0  0
   10.2181   -1.8786    0.0000 C   0  0  0  0  0  0  0  0  0  0  0  0
    7.5644   -3.3020    0.0000 C   0  0  0  0  0  0  0  0  0  0  0  0
    6.5988   -3.6751    0.0000 C   0  0  0  0  0  0  0  0  0  0  0  0
    5.0250    3.6751    0.0000 C   0  0  0  0  0  0  0  0  0  0  0  0
    4.0454    3.3403    0.0000 C   0  0  0  0  0  0  0  0  0  0  0  0
   12.6909    0.3928    0.0000 C   0  0  0  0  0  0  0  0  0  0  0  0
    9.8412   -0.6781    0.0000 H   0  0  0  0  0  0  0  0  0  0  0  0
    8.4819    2.1556    0.0000 H   0  0  0  0  0  0  0  0  0  0  0  0
   10.4668    0.6641    0.0000 H   0  0  0  0  0  0  0  0  0  0  0  0
   10.3014    1.2593    0.0000 H   0  0  0  0  0  0  0  0  0  0  0  0
    9.6745    1.7566    0.0000 H   0  0  0  0  0  0  0  0  0  0  0  0
    7.1454   -0.4368    0.0000 H   0  0  0  0  0  0  0  0  0  0  0  0
    7.5838   -1.1961    0.0000 H   0  0  0  0  0  0  0  0  0  0  0  0
    8.3432   -0.7577    0.0000 H   0  0  0  0  0  0  0  0  0  0  0  0
    3.0413   -2.2187    0.0000 H   0  0  0  0  0  0  0  0  0  0  0  0
    3.8703   -2.1912    0.0000 H   0  0  0  0  0  0  0  0  0  0  0  0
    8.2919   -2.0478    0.0000 H   0  0  0  0  0  0  0  0  0  0  0  0
    6.3884    3.1820    0.0000 H   0  0  0  0  0  0  0  0  0  0  0  0
    5.2171   -3.2360    0.0000 H   0  0  0  0  0  0  0  0  0  0  0  0
   10.6778   -1.1818    0.0000 H   0  0  0  0  0  0  0  0  0  0  0  0
   11.4371   -1.6203    0.0000 H   0  0  0  0  0  0  0  0  0  0  0  0
   11.8755   -0.8609    0.0000 H   0  0  0  0  0  0  0  0  0  0  0  0
    3.2692    2.1157    0.0000 H   0  0  0  0  0  0  0  0  0  0  0  0
    2.0000   -1.3766    0.0000 H   0  0  0  0  0  0  0  0  0  0  0  0
    9.9366   -2.4310    0.0000 H   0  0  0  0  0  0  0  0  0  0  0  0
   10.7705   -2.1600    0.0000 H   0  0  0  0  0  0  0  0  0  0  0  0
   10.4996   -1.3262    0.0000 H   0  0  0  0  0  0  0  0  0  0  0  0
    8.0486   -3.6892    0.0000 H   0  0  0  0  0  0  0  0  0  0  0  0
    6.5009   -4.2873    0.0000 H   0  0  0  0  0  0  0  0  0  0  0  0
    5.1470    4.2830    0.0000 H   0  0  0  0  0  0  0  0  0  0  0  0
    3.5769    3.7463    0.0000 H   0  0  0  0  0  0  0  0  0  0  0  0
  1 41  1  0  0  0  0
  2 41  1  0  0  0  0
  3 41  1  0  0  0  0
  4 12  1  0  0  0  0
  4 14  1  0  0  0  0
 13  5  1  6  0  0  0
  5 36  1  0  0  0  0
  6 30  2  0  0  0  0
  7 35  2  0  0  0  0
  8 12  1  0  0  0  0
  8 17  1  0  0  0  0
  8 21  1  0  0  0  0
  9 14  1  0  0  0  0
  9 18  1  0  0  0  0
  9 23  1  0  0  0  0
 15 10  1  6  0  0  0
 10 33  1  0  0  0  0
 10 35  1  0  0  0  0
 11 28  1  0  0  0  0
 11 30  1  0  0  0  0
 11 59  1  0  0  0  0
 12 13  1  0  0  0  0
 12 22  1  1  0  0  0
 13 15  1  0  0  0  0
 13 42  1  0  0  0  0
 14 16  1  0  0  0  0
 14 43  1  6  0  0  0
 15 16  1  0  0  0  0
 15 44  1  0  0  0  0
 16 45  1  0  0  0  0
 16 46  1  0  0  0  0
 17 18  2  0  0  0  0
 17 19  1  0  0  0  0
 18 20  1  0  0  0  0
 19 24  1  0  0  0  0
 19 25  2  0  0  0  0
 20 26  2  0  0  0  0
 20 27  1  0  0  0  0
 21 24  1  0  0  0  0
 21 29  2  0  0  0  0
 22 47  1  0  0  0  0
 22 48  1  0  0  0  0
 22 49  1  0  0  0  0
 23 27  1  0  0  0  0
 23 31  2  0  0  0  0
 24 32  2  0  0  0  0
 25 26  1  0  0  0  0
 25 28  1  0  0  0  0
 26 30  1  0  0  0  0
 27 34  2  0  0  0  0
 28 50  1  0  0  0  0
 28 51  1  0  0  0  0
 29 37  1  0  0  0  0
 29 52  1  0  0  0  0
 31 39  1  0  0  0  0
 31 53  1  0  0  0  0
 32 38  1  0  0  0  0
 32 54  1  0  0  0  0
 33 55  1  0  0  0  0
 33 56  1  0  0  0  0
 33 57  1  0  0  0  0
 34 40  1  0  0  0  0
 34 58  1  0  0  0  0
 35 41  1  0  0  0  0
 36 60  1  0  0  0  0
 36 61  1  0  0  0  0
 36 62  1  0  0  0  0
 37 38  2  0  0  0  0
 37 63  1  0  0  0  0
 38 64  1  0  0  0  0
 39 40  2  0  0  0  0
 39 65  1  0  0  0  0
 40 66  1  0  0  0  0
M  END
> <PUBCHEM_COMPOUND_CID>
44352817

> <PUBCHEM_COMPOUND_CANONICALIZED>
1

> <PUBCHEM_CACTVS_COMPLEXITY>
1120

> <PUBCHEM_CACTVS_HBOND_ACCEPTOR>
7

> <PUBCHEM_CACTVS_HBOND_DONOR>
1

> <PUBCHEM_CACTVS_ROTATABLE_BOND>
2

> <PUBCHEM_CACTVS_SUBSKEYS>
AAADceB7uYAAAAAAAAAAAAAAAAAAAWLFgAA0YMEABYAAAFix/gAAHwAQAAAADDzhnhYywPPMFACoAyVyVACCgCQlEiAI2KE4dNgLYPLA1ZGfIQhmhgDayQf82cOeyAACQAASACCQAASAACQAQAAAAAAAAA==

> <PUBCHEM_IUPAC_OPENEYE_NAME>
2,2,2-trifluoro-N-[(2R,3S,4S,6S)-3-methoxy-2-methyl-16-oxo-29-oxa-1,7,17-triazaoctacyclo[12.12.2.12,6.07,28.08,13.015,19.020,27.021,26]nonacosa-8,10,12,14,19,21,23,25,27-nonaen-4-yl]-N-methyl-acetamide

> <PUBCHEM_IUPAC_CAS_NAME>
2,2,2-trifluoro-N-[(2R,3S,4S,6S)-3-methoxy-2-methyl-16-oxo-29-oxa-1,7,17-triazaoctacyclo[12.12.2.12,6.07,28.08,13.015,19.020,27.021,26]nonacosa-8,10,12,14,19,21,23,25,27-nonaen-4-yl]-N-methylacetamide

> <PUBCHEM_IUPAC_NAME_MARKUP>
2,2,2-trifluoro-<I>N</I>-[(2<I>R</I>,3<I>S</I>,4<I>S</I>,6<I>S</I>)-3-methoxy-2-methyl-16-oxo-29-oxa-1,7,17-triazaoctacyclo[12.12.2.1<SUP>2,6</SUP>.0<SUP>7,28</SUP>.0<SUP>8,13</SUP>.0<SUP>15,19</SUP>.0<SUP>20,27</SUP>.0<SUP>21,26</SUP>]nonacosa-8,10,12,14,19,21,23,25,27-nonaen-4-yl]-<I>N</I>-methylacetamide

> <PUBCHEM_IUPAC_NAME>
2,2,2-trifluoro-N-[(2R,3S,4S,6S)-3-methoxy-2-methyl-16-oxo-29-oxa-1,7,17-triazaoctacyclo[12.12.2.12,6.07,28.08,13.015,19.020,27.021,26]nonacosa-8,10,12,14,19,21,23,25,27-nonaen-4-yl]-N-methylacetamide

> <PUBCHEM_IUPAC_SYSTEMATIC_NAME>
2,2,2-tris(fluoranyl)-N-[(2R,3S,4S,6S)-3-methoxy-2-methyl-16-oxidanylidene-29-oxa-1,7,17-triazaoctacyclo[12.12.2.12,6.07,28.08,13.015,19.020,27.021,26]nonacosa-8,10,12,14,19,21,23,25,27-nonaen-4-yl]-N-methyl-ethanamide

> <PUBCHEM_IUPAC_TRADITIONAL_NAME>
2,2,2-trifluoro-N-[(2R,3S,4S,6S)-16-keto-3-methoxy-2-methyl-29-oxa-1,7,17-triazaoctacyclo[12.12.2.12,6.07,28.08,13.015,19.020,27.021,26]nonacosa-8,10,12,14,19,21,23,25,27-nonaen-4-yl]-N-methyl-acetamide

> <PUBCHEM_IUPAC_INCHI>
InChI=1S/C30H25F3N4O4/c1-29-26(40-3)19(35(2)28(39)30(31,32)33)12-20(41-29)36-17-10-6-4-8-14(17)22-23-16(13-34-27(23)38)21-15-9-5-7-11-18(15)37(29)25(21)24(22)36/h4-11,19-20,26H,12-13H2,1-3H3,(H,34,38)/t19-,20-,26-,29+/m0/s1

> <PUBCHEM_IUPAC_INCHIKEY>
VWHZWDRIMLETBG-JAVUZYRSSA-N

> <PUBCHEM_XLOGP3_AA>
4.3

> <PUBCHEM_EXACT_MASS>
562.18278978

> <PUBCHEM_MOLECULAR_FORMULA>
C30H25F3N4O4

> <PUBCHEM_MOLECULAR_WEIGHT>
562.5

> <PUBCHEM_SMILES>
C[C@]12[C@H]([C@H](C[C@H](O1)N3C4=CC=CC=C4C5=C6C(=C7C8=CC=CC=C8N2C7=C53)CNC6=O)N(C)C(=O)C(F)(F)F)OC

> <PUBCHEM_OPENEYE_CAN_SMILES>
CC12C(C(CC(O1)N3C4=CC=CC=C4C5=C6C(=C7C8=CC=CC=C8N2C7=C53)CNC6=O)N(C)C(=O)C(F)(F)F)OC

> <PUBCHEM_OPENEYE_ISO_SMILES>
C[C@]12[C@H]([C@H](C[C@H](O1)N3C4=CC=CC=C4C5=C6C(=C7C8=CC=CC=C8N2C7=C53)CNC6=O)N(C)C(=O)C(F)(F)F)OC

> <PUBCHEM_CACTVS_TPSA>
77.7

> <PUBCHEM_MONOISOTOPIC_WEIGHT>
562.18278978

> <PUBCHEM_TOTAL_CHARGE>
0

> <PUBCHEM_HEAVY_ATOM_COUNT>
41

> <PUBCHEM_ATOM_DEF_STEREO_COUNT>
4

> <PUBCHEM_ATOM_UDEF_STEREO_COUNT>
0

> <PUBCHEM_BOND_DEF_STEREO_COUNT>
0

> <PUBCHEM_BOND_UDEF_STEREO_COUNT>
0

> <PUBCHEM_ISOTOPIC_ATOM_COUNT>
0

> <PUBCHEM_COMPONENT_COUNT>
1

> <PUBCHEM_CACTVS_TAUTO_COUNT>
-1

> <PUBCHEM_COORDINATE_TYPE>
1
5
255

> <PUBCHEM_BONDANNOTATIONS>
15  10  6
12  22  5
14  43  6
17  18  8
17  19  8
18  20  8
19  24  8
19  25  8
20  26  8
20  27  8
21  24  8
21  29  8
23  27  8
23  31  8
24  32  8
25  26  8
27  34  8
29  37  8
31  39  8
32  38  8
34  40  8
37  38  8
39  40  8
13  5  6
8  17  8
8  21  8
9  18  8
9  23  8

$$$$
