127406
  -OEChem-03202505242D

 70 73  0     1  0  0  0  0  0999 V2000
    8.5991    0.0390    0.0000 O   0  0  0  0  0  0  0  0  0  0  0  0
   10.3312    1.0390    0.0000 O   0  0  0  0  0  0  0  0  0  0  0  0
    6.8671    1.0390    0.0000 O   0  0  0  0  0  0  0  0  0  0  0  0
    8.0991    3.9050    0.0000 O   0  0  0  0  0  0  0  0  0  0  0  0
   10.0991    3.9050    0.0000 O   0  0  0  0  0  0  0  0  0  0  0  0
    8.5991    4.7710    0.0000 O   0  0  0  0  0  0  0  0  0  0  0  0
    6.8671    0.0390    0.0000 O   0  0  0  0  0  0  0  0  0  0  0  0
   11.1972    2.5390    0.0000 O   0  0  0  0  0  0  0  0  0  0  0  0
    6.0010    2.5390    0.0000 O   0  0  0  0  0  0  0  0  0  0  0  0
    6.0010   -3.4610    0.0000 O   0  0  0  0  0  0  0  0  0  0  0  0
    9.4651   -3.4610    0.0000 O   0  0  0  0  0  0  0  0  0  0  0  0
   12.9292   -1.4610    0.0000 O   0  0  0  0  0  0  0  0  0  0  0  0
   14.6613    1.5390    0.0000 O   0  0  0  0  0  0  0  0  0  0  0  0
    2.5369    1.5390    0.0000 O   0  0  0  0  0  0  0  0  0  0  0  0
    4.2690   -1.4610    0.0000 O   0  0  0  0  0  0  0  0  0  0  0  0
    7.7331   -4.4610    0.0000 O   0  0  0  0  0  0  0  0  0  0  0  0
   14.6613   -0.4610    0.0000 O   0  0  0  0  0  0  0  0  0  0  0  0
    2.5369   -0.4610    0.0000 O   0  0  0  0  0  0  0  0  0  0  0  0
    8.5991    3.0390    0.0000 C   0  0  0  0  0  0  0  0  0  0  0  0
    8.5991    1.0390    0.0000 C   0  0  0  0  0  0  0  0  0  0  0  0
    9.4651    1.5390    0.0000 C   0  0  1  0  0  0  0  0  0  0  0  0
    7.7331    1.5390    0.0000 C   0  0  1  0  0  0  0  0  0  0  0  0
    9.4651    2.5390    0.0000 C   0  0  0  0  0  0  0  0  0  0  0  0
    7.7331    2.5390    0.0000 C   0  0  0  0  0  0  0  0  0  0  0  0
    9.0991    3.9050    0.0000 C   0  0  0  0  0  0  0  0  0  0  0  0
    7.7331   -0.4610    0.0000 C   0  0  0  0  0  0  0  0  0  0  0  0
   11.1972    1.5390    0.0000 C   0  0  0  0  0  0  0  0  0  0  0  0
    6.0010    1.5390    0.0000 C   0  0  0  0  0  0  0  0  0  0  0  0
    7.7331   -1.4610    0.0000 C   0  0  0  0  0  0  0  0  0  0  0  0
   12.0632    1.0390    0.0000 C   0  0  0  0  0  0  0  0  0  0  0  0
    5.1350    1.0390    0.0000 C   0  0  0  0  0  0  0  0  0  0  0  0
    8.5991   -1.9610    0.0000 C   0  0  0  0  0  0  0  0  0  0  0  0
    6.8671   -1.9610    0.0000 C   0  0  0  0  0  0  0  0  0  0  0  0
   12.9292    1.5390    0.0000 C   0  0  0  0  0  0  0  0  0  0  0  0
   12.0632    0.0390    0.0000 C   0  0  0  0  0  0  0  0  0  0  0  0
    5.1350    0.0390    0.0000 C   0  0  0  0  0  0  0  0  0  0  0  0
    4.2690    1.5390    0.0000 C   0  0  0  0  0  0  0  0  0  0  0  0
    6.8671   -2.9610    0.0000 C   0  0  0  0  0  0  0  0  0  0  0  0
    8.5991   -2.9610    0.0000 C   0  0  0  0  0  0  0  0  0  0  0  0
   12.9292   -0.4610    0.0000 C   0  0  0  0  0  0  0  0  0  0  0  0
   13.7953    1.0390    0.0000 C   0  0  0  0  0  0  0  0  0  0  0  0
    3.4030    1.0390    0.0000 C   0  0  0  0  0  0  0  0  0  0  0  0
    4.2690   -0.4610    0.0000 C   0  0  0  0  0  0  0  0  0  0  0  0
    7.7331   -3.4610    0.0000 C   0  0  0  0  0  0  0  0  0  0  0  0
   13.7953    0.0390    0.0000 C   0  0  0  0  0  0  0  0  0  0  0  0
    3.4030    0.0390    0.0000 C   0  0  0  0  0  0  0  0  0  0  0  0
    8.0622    0.7290    0.0000 H   0  0  0  0  0  0  0  0  0  0  0  0
   10.0021    1.8490    0.0000 H   0  0  0  0  0  0  0  0  0  0  0  0
    7.1962    1.8490    0.0000 H   0  0  0  0  0  0  0  0  0  0  0  0
   10.0757    2.4313    0.0000 H   0  0  0  0  0  0  0  0  0  0  0  0
    9.6772    3.1216    0.0000 H   0  0  0  0  0  0  0  0  0  0  0  0
    7.5210    3.1216    0.0000 H   0  0  0  0  0  0  0  0  0  0  0  0
    7.1225    2.4313    0.0000 H   0  0  0  0  0  0  0  0  0  0  0  0
    7.4791    3.9050    0.0000 H   0  0  0  0  0  0  0  0  0  0  0  0
   10.4091    4.4419    0.0000 H   0  0  0  0  0  0  0  0  0  0  0  0
    9.1360   -1.6510    0.0000 H   0  0  0  0  0  0  0  0  0  0  0  0
    6.3301   -1.6510    0.0000 H   0  0  0  0  0  0  0  0  0  0  0  0
   12.9292    2.1590    0.0000 H   0  0  0  0  0  0  0  0  0  0  0  0
   11.5263   -0.2710    0.0000 H   0  0  0  0  0  0  0  0  0  0  0  0
    5.6720   -0.2710    0.0000 H   0  0  0  0  0  0  0  0  0  0  0  0
    4.2690    2.1590    0.0000 H   0  0  0  0  0  0  0  0  0  0  0  0
    6.0010   -4.0810    0.0000 H   0  0  0  0  0  0  0  0  0  0  0  0
   10.0021   -3.1510    0.0000 H   0  0  0  0  0  0  0  0  0  0  0  0
   13.4662   -1.7710    0.0000 H   0  0  0  0  0  0  0  0  0  0  0  0
   14.6613    2.1590    0.0000 H   0  0  0  0  0  0  0  0  0  0  0  0
    2.5369    2.1590    0.0000 H   0  0  0  0  0  0  0  0  0  0  0  0
    3.7320   -1.7710    0.0000 H   0  0  0  0  0  0  0  0  0  0  0  0
    8.2700   -4.7710    0.0000 H   0  0  0  0  0  0  0  0  0  0  0  0
   15.1982   -0.1510    0.0000 H   0  0  0  0  0  0  0  0  0  0  0  0
    2.0000   -0.1510    0.0000 H   0  0  0  0  0  0  0  0  0  0  0  0
  1 20  1  0  0  0  0
  1 26  1  0  0  0  0
 21  2  1  1  0  0  0
  2 27  1  0  0  0  0
 22  3  1  6  0  0  0
  3 28  1  0  0  0  0
  4 19  1  0  0  0  0
  4 54  1  0  0  0  0
  5 25  1  0  0  0  0
  5 55  1  0  0  0  0
  6 25  2  0  0  0  0
  7 26  2  0  0  0  0
  8 27  2  0  0  0  0
  9 28  2  0  0  0  0
 10 38  1  0  0  0  0
 10 62  1  0  0  0  0
 11 39  1  0  0  0  0
 11 63  1  0  0  0  0
 12 40  1  0  0  0  0
 12 64  1  0  0  0  0
 13 41  1  0  0  0  0
 13 65  1  0  0  0  0
 14 42  1  0  0  0  0
 14 66  1  0  0  0  0
 15 43  1  0  0  0  0
 15 67  1  0  0  0  0
 16 44  1  0  0  0  0
 16 68  1  0  0  0  0
 17 45  1  0  0  0  0
 17 69  1  0  0  0  0
 18 46  1  0  0  0  0
 18 70  1  0  0  0  0
 19 23  1  0  0  0  0
 19 24  1  0  0  0  0
 19 25  1  0  0  0  0
 20 21  1  0  0  0  0
 20 22  1  0  0  0  0
 20 47  1  0  0  0  0
 21 23  1  0  0  0  0
 21 48  1  0  0  0  0
 22 24  1  0  0  0  0
 22 49  1  0  0  0  0
 23 50  1  0  0  0  0
 23 51  1  0  0  0  0
 24 52  1  0  0  0  0
 24 53  1  0  0  0  0
 26 29  1  0  0  0  0
 27 30  1  0  0  0  0
 28 31  1  0  0  0  0
 29 32  2  0  0  0  0
 29 33  1  0  0  0  0
 30 34  2  0  0  0  0
 30 35  1  0  0  0  0
 31 36  2  0  0  0  0
 31 37  1  0  0  0  0
 32 39  1  0  0  0  0
 32 56  1  0  0  0  0
 33 38  2  0  0  0  0
 33 57  1  0  0  0  0
 34 41  1  0  0  0  0
 34 58  1  0  0  0  0
 35 40  2  0  0  0  0
 35 59  1  0  0  0  0
 36 43  1  0  0  0  0
 36 60  1  0  0  0  0
 37 42  2  0  0  0  0
 37 61  1  0  0  0  0
 38 44  1  0  0  0  0
 39 44  2  0  0  0  0
 40 45  1  0  0  0  0
 41 45  2  0  0  0  0
 42 46  1  0  0  0  0
 43 46  2  0  0  0  0
M  END
> <PUBCHEM_COMPOUND_CID>
127406

> <PUBCHEM_COMPOUND_CANONICALIZED>
1

> <PUBCHEM_CACTVS_COMPLEXITY>
1040

> <PUBCHEM_CACTVS_HBOND_ACCEPTOR>
18

> <PUBCHEM_CACTVS_HBOND_DONOR>
11

> <PUBCHEM_CACTVS_ROTATABLE_BOND>
10

> <PUBCHEM_CACTVS_SUBSKEYS>
AAADceB4PgAAAAAAAAAAAAAAAAAAAAAAAAAwYMGAAAAAAAABUAAAGgAACAAADFSgmAIwDoAABgCIAiDSCAICAAAkIAAAiAFGiMgJJzKCNRqCcQElwBULuYfK7DzOIAABCAAAQABCAAIQAACAAAAAAAAAAA==

> <PUBCHEM_IUPAC_OPENEYE_NAME>
(3R,5R)-1-hydroxy-3,4,5-tris[(3,4,5-trihydroxybenzoyl)oxy]cyclohexanecarboxylic acid

> <PUBCHEM_IUPAC_CAS_NAME>
(3R,5R)-1-hydroxy-3,4,5-tris[oxo-(3,4,5-trihydroxyphenyl)methoxy]-1-cyclohexanecarboxylic acid

> <PUBCHEM_IUPAC_NAME_MARKUP>
(3<I>R</I>,5<I>R</I>)-1-hydroxy-3,4,5-tris[(3,4,5-trihydroxybenzoyl)oxy]cyclohexane-1-carboxylic acid

> <PUBCHEM_IUPAC_NAME>
(3R,5R)-1-hydroxy-3,4,5-tris[(3,4,5-trihydroxybenzoyl)oxy]cyclohexane-1-carboxylic acid

> <PUBCHEM_IUPAC_SYSTEMATIC_NAME>
(3R,5R)-1-oxidanyl-3,4,5-tris[[3,4,5-tris(oxidanyl)phenyl]carbonyloxy]cyclohexane-1-carboxylic acid

> <PUBCHEM_IUPAC_TRADITIONAL_NAME>
(3R,5R)-3,4,5-trigalloyloxy-1-hydroxy-cyclohexanecarboxylic acid

> <PUBCHEM_IUPAC_INCHI>
InChI=1S/C28H24O18/c29-12-1-9(2-13(30)20(12)35)24(38)44-18-7-28(43,27(41)42)8-19(45-25(39)10-3-14(31)21(36)15(32)4-10)23(18)46-26(40)11-5-16(33)22(37)17(34)6-11/h1-6,18-19,23,29-37,43H,7-8H2,(H,41,42)/t18-,19-,23?,28?/m1/s1

> <PUBCHEM_IUPAC_INCHIKEY>
PEOHIPMSHPWYAQ-IOALSNHGSA-N

> <PUBCHEM_XLOGP3_AA>
1.1

> <PUBCHEM_EXACT_MASS>
648.09626391

> <PUBCHEM_MOLECULAR_FORMULA>
C28H24O18

> <PUBCHEM_MOLECULAR_WEIGHT>
648.5

> <PUBCHEM_SMILES>
C1[C@H](C([C@@H](CC1(C(=O)O)O)OC(=O)C2=CC(=C(C(=C2)O)O)O)OC(=O)C3=CC(=C(C(=C3)O)O)O)OC(=O)C4=CC(=C(C(=C4)O)O)O

> <PUBCHEM_OPENEYE_CAN_SMILES>
C1C(C(C(CC1(C(=O)O)O)OC(=O)C2=CC(=C(C(=C2)O)O)O)OC(=O)C3=CC(=C(C(=C3)O)O)O)OC(=O)C4=CC(=C(C(=C4)O)O)O

> <PUBCHEM_OPENEYE_ISO_SMILES>
C1[C@H](C([C@@H](CC1(C(=O)O)O)OC(=O)C2=CC(=C(C(=C2)O)O)O)OC(=O)C3=CC(=C(C(=C3)O)O)O)OC(=O)C4=CC(=C(C(=C4)O)O)O

> <PUBCHEM_CACTVS_TPSA>
319

> <PUBCHEM_MONOISOTOPIC_WEIGHT>
648.09626391

> <PUBCHEM_TOTAL_CHARGE>
0

> <PUBCHEM_HEAVY_ATOM_COUNT>
46

> <PUBCHEM_ATOM_DEF_STEREO_COUNT>
2

> <PUBCHEM_ATOM_UDEF_STEREO_COUNT>
0

> <PUBCHEM_BOND_DEF_STEREO_COUNT>
0

> <PUBCHEM_BOND_UDEF_STEREO_COUNT>
0

> <PUBCHEM_ISOTOPIC_ATOM_COUNT>
0

> <PUBCHEM_COMPONENT_COUNT>
1

> <PUBCHEM_CACTVS_TAUTO_COUNT>
-1

> <PUBCHEM_COORDINATE_TYPE>
1
5
255

> <PUBCHEM_BONDANNOTATIONS>
21  2  5
29  32  8
29  33  8
22  3  6
30  34  8
30  35  8
31  36  8
31  37  8
32  39  8
33  38  8
34  41  8
35  40  8
36  43  8
37  42  8
38  44  8
39  44  8
40  45  8
41  45  8
42  46  8
43  46  8

$$$$
