16058637
  -OEChem-03202505002D

 39 41  0     0  0  0  0  0  0999 V2000
   12.0632    0.0600    0.0000 O   0  0  0  0  0  0  0  0  0  0  0  0
    4.2690   -1.4400    0.0000 O   0  0  0  0  0  0  0  0  0  0  0  0
    5.1350    0.0600    0.0000 N   0  0  0  0  0  0  0  0  0  0  0  0
    8.5991    0.0600    0.0000 N   0  0  0  0  0  0  0  0  0  0  0  0
    6.8671    0.0600    0.0000 N   0  0  0  0  0  0  0  0  0  0  0  0
    7.7331    1.5600    0.0000 N   0  0  0  0  0  0  0  0  0  0  0  0
    2.5369   -1.4400    0.0000 N   0  0  0  0  0  0  0  0  0  0  0  0
    4.2690    0.5600    0.0000 C   0  0  0  0  0  0  0  0  0  0  0  0
    3.4030    0.0600    0.0000 C   0  0  0  0  0  0  0  0  0  0  0  0
    6.0010    0.5600    0.0000 C   0  0  0  0  0  0  0  0  0  0  0  0
    4.2690    1.5600    0.0000 C   0  0  0  0  0  0  0  0  0  0  0  0
    9.4651    0.5600    0.0000 C   0  0  0  0  0  0  0  0  0  0  0  0
    2.5369    0.5600    0.0000 C   0  0  0  0  0  0  0  0  0  0  0  0
    7.7331    0.5600    0.0000 C   0  0  0  0  0  0  0  0  0  0  0  0
    3.4030    2.0600    0.0000 C   0  0  0  0  0  0  0  0  0  0  0  0
    2.5369    1.5600    0.0000 C   0  0  0  0  0  0  0  0  0  0  0  0
    6.0010    1.5600    0.0000 C   0  0  0  0  0  0  0  0  0  0  0  0
   10.3312    0.0600    0.0000 C   0  0  0  0  0  0  0  0  0  0  0  0
    9.4651    1.5600    0.0000 C   0  0  0  0  0  0  0  0  0  0  0  0
    3.4030   -0.9400    0.0000 C   0  0  0  0  0  0  0  0  0  0  0  0
   11.1972    0.5600    0.0000 C   0  0  0  0  0  0  0  0  0  0  0  0
    6.8671    2.0600    0.0000 C   0  0  0  0  0  0  0  0  0  0  0  0
   10.3312    2.0600    0.0000 C   0  0  0  0  0  0  0  0  0  0  0  0
   11.1972    1.5600    0.0000 C   0  0  0  0  0  0  0  0  0  0  0  0
    5.1350   -0.5600    0.0000 H   0  0  0  0  0  0  0  0  0  0  0  0
    4.8059    1.8700    0.0000 H   0  0  0  0  0  0  0  0  0  0  0  0
    2.0000    0.2500    0.0000 H   0  0  0  0  0  0  0  0  0  0  0  0
    8.5991   -0.5600    0.0000 H   0  0  0  0  0  0  0  0  0  0  0  0
    3.4030    2.6800    0.0000 H   0  0  0  0  0  0  0  0  0  0  0  0
    2.0000    1.8700    0.0000 H   0  0  0  0  0  0  0  0  0  0  0  0
    5.4641    1.8700    0.0000 H   0  0  0  0  0  0  0  0  0  0  0  0
   10.3312   -0.5600    0.0000 H   0  0  0  0  0  0  0  0  0  0  0  0
    8.9282    1.8700    0.0000 H   0  0  0  0  0  0  0  0  0  0  0  0
    6.8671    2.6800    0.0000 H   0  0  0  0  0  0  0  0  0  0  0  0
   10.3312    2.6800    0.0000 H   0  0  0  0  0  0  0  0  0  0  0  0
   11.7341    1.8700    0.0000 H   0  0  0  0  0  0  0  0  0  0  0  0
    2.0000   -1.1300    0.0000 H   0  0  0  0  0  0  0  0  0  0  0  0
    2.5369   -2.0600    0.0000 H   0  0  0  0  0  0  0  0  0  0  0  0
   12.6002    0.3700    0.0000 H   0  0  0  0  0  0  0  0  0  0  0  0
  1 21  1  0  0  0  0
  1 39  1  0  0  0  0
  2 20  2  0  0  0  0
  3  8  1  0  0  0  0
  3 10  1  0  0  0  0
  3 25  1  0  0  0  0
  4 12  1  0  0  0  0
  4 14  1  0  0  0  0
  4 28  1  0  0  0  0
  5 10  2  0  0  0  0
  5 14  1  0  0  0  0
  6 14  2  0  0  0  0
  6 22  1  0  0  0  0
  7 20  1  0  0  0  0
  7 37  1  0  0  0  0
  7 38  1  0  0  0  0
  8  9  1  0  0  0  0
  8 11  2  0  0  0  0
  9 13  2  0  0  0  0
  9 20  1  0  0  0  0
 10 17  1  0  0  0  0
 11 15  1  0  0  0  0
 11 26  1  0  0  0  0
 12 18  2  0  0  0  0
 12 19  1  0  0  0  0
 13 16  1  0  0  0  0
 13 27  1  0  0  0  0
 15 16  2  0  0  0  0
 15 29  1  0  0  0  0
 16 30  1  0  0  0  0
 17 22  2  0  0  0  0
 17 31  1  0  0  0  0
 18 21  1  0  0  0  0
 18 32  1  0  0  0  0
 19 23  2  0  0  0  0
 19 33  1  0  0  0  0
 21 24  2  0  0  0  0
 22 34  1  0  0  0  0
 23 24  1  0  0  0  0
 23 35  1  0  0  0  0
 24 36  1  0  0  0  0
M  END
> <PUBCHEM_COMPOUND_CID>
16058637

> <PUBCHEM_COMPOUND_CANONICALIZED>
1

> <PUBCHEM_CACTVS_COMPLEXITY>
422

> <PUBCHEM_CACTVS_HBOND_ACCEPTOR>
6

> <PUBCHEM_CACTVS_HBOND_DONOR>
4

> <PUBCHEM_CACTVS_ROTATABLE_BOND>
5

> <PUBCHEM_CACTVS_SUBSKEYS>
AAADccB7sAAAAAAAAAAAAAAAAAAAAAAAAAA8YIAAAAAAAAAB0AAAHgAQCAAADAzBmgQ99pbIEgCoAjd3dACCgCk1IqAJ2CE+bNiILvrC3dOEdYhu0BvI2eeY2AOOAAAAAgACAAAAAAAEAAQAAAAAAAAAAA==

> <PUBCHEM_IUPAC_OPENEYE_NAME>
2-[[2-(3-hydroxyanilino)pyrimidin-4-yl]amino]benzamide

> <PUBCHEM_IUPAC_CAS_NAME>
2-[[2-(3-hydroxyanilino)-4-pyrimidinyl]amino]benzamide

> <PUBCHEM_IUPAC_NAME_MARKUP>
2-[[2-(3-hydroxyanilino)pyrimidin-4-yl]amino]benzamide

> <PUBCHEM_IUPAC_NAME>
2-[[2-(3-hydroxyanilino)pyrimidin-4-yl]amino]benzamide

> <PUBCHEM_IUPAC_SYSTEMATIC_NAME>
2-[[2-[(3-hydroxyphenyl)amino]pyrimidin-4-yl]amino]benzamide

> <PUBCHEM_IUPAC_TRADITIONAL_NAME>
2-[[2-(3-hydroxyanilino)pyrimidin-4-yl]amino]benzamide

> <PUBCHEM_IUPAC_INCHI>
InChI=1S/C17H15N5O2/c18-16(24)13-6-1-2-7-14(13)21-15-8-9-19-17(22-15)20-11-4-3-5-12(23)10-11/h1-10,23H,(H2,18,24)(H2,19,20,21,22)

> <PUBCHEM_IUPAC_INCHIKEY>
QHPKKGUGRGRSGA-UHFFFAOYSA-N

> <PUBCHEM_XLOGP3_AA>
3

> <PUBCHEM_EXACT_MASS>
321.12257474

> <PUBCHEM_MOLECULAR_FORMULA>
C17H15N5O2

> <PUBCHEM_MOLECULAR_WEIGHT>
321.33

> <PUBCHEM_SMILES>
C1=CC=C(C(=C1)C(=O)N)NC2=NC(=NC=C2)NC3=CC(=CC=C3)O

> <PUBCHEM_OPENEYE_CAN_SMILES>
C1=CC=C(C(=C1)C(=O)N)NC2=NC(=NC=C2)NC3=CC(=CC=C3)O

> <PUBCHEM_OPENEYE_ISO_SMILES>
C1=CC=C(C(=C1)C(=O)N)NC2=NC(=NC=C2)NC3=CC(=CC=C3)O

> <PUBCHEM_CACTVS_TPSA>
113

> <PUBCHEM_MONOISOTOPIC_WEIGHT>
321.12257474

> <PUBCHEM_TOTAL_CHARGE>
0

> <PUBCHEM_HEAVY_ATOM_COUNT>
24

> <PUBCHEM_ATOM_DEF_STEREO_COUNT>
0

> <PUBCHEM_ATOM_UDEF_STEREO_COUNT>
0

> <PUBCHEM_BOND_DEF_STEREO_COUNT>
0

> <PUBCHEM_BOND_UDEF_STEREO_COUNT>
0

> <PUBCHEM_ISOTOPIC_ATOM_COUNT>
0

> <PUBCHEM_COMPONENT_COUNT>
1

> <PUBCHEM_CACTVS_TAUTO_COUNT>
-1

> <PUBCHEM_COORDINATE_TYPE>
1
5
255

> <PUBCHEM_BONDANNOTATIONS>
10  17  8
11  15  8
12  18  8
12  19  8
13  16  8
15  16  8
17  22  8
18  21  8
19  23  8
21  24  8
23  24  8
5  10  8
5  14  8
6  14  8
6  22  8
8  11  8
8  9  8
9  13  8

$$$$
