6540005
  -OEChem-03202505582D

 47 50  0     0  0  0  0  0  0999 V2000
    4.6783   -4.1370    0.0000 S   0  0  0  0  0  0  0  0  0  0  0  0
    7.8314    4.3323    0.0000 F   0  0  0  0  0  0  0  0  0  0  0  0
   11.1706    0.6108    0.0000 F   0  0  0  0  0  0  0  0  0  0  0  0
   11.2471    2.0229    0.0000 F   0  0  0  0  0  0  0  0  0  0  0  0
    9.7585    0.6872    0.0000 F   0  0  0  0  0  0  0  0  0  0  0  0
    7.5673    0.7364    0.0000 O   0  0  0  0  0  0  0  0  0  0  0  0
    5.9209    1.2745    0.0000 N   0  0  0  0  0  0  0  0  0  0  0  0
    2.8660   -4.3323    0.0000 N   0  0  0  0  0  0  0  0  0  0  0  0
    2.0000   -2.8323    0.0000 N   0  0  0  0  0  0  0  0  0  0  0  0
    2.8660   -1.3323    0.0000 N   0  0  0  0  0  0  0  0  0  0  0  0
    7.2101    2.4313    0.0000 N   0  0  0  0  0  0  0  0  0  0  0  0
    4.6783   -2.5276    0.0000 C   0  0  0  0  0  0  0  0  0  0  0  0
    3.7320   -2.8323    0.0000 C   0  0  0  0  0  0  0  0  0  0  0  0
    4.9889   -1.5770    0.0000 C   0  0  0  0  0  0  0  0  0  0  0  0
    5.2619   -3.3323    0.0000 C   0  0  0  0  0  0  0  0  0  0  0  0
    3.7320   -3.8323    0.0000 C   0  0  0  0  0  0  0  0  0  0  0  0
    5.9674   -1.3708    0.0000 C   0  0  0  0  0  0  0  0  0  0  0  0
    4.3211   -0.8327    0.0000 C   0  0  0  0  0  0  0  0  0  0  0  0
    2.8660   -2.3323    0.0000 C   0  0  0  0  0  0  0  0  0  0  0  0
    5.6103    0.3240    0.0000 C   0  0  0  0  0  0  0  0  0  0  0  0
    6.2619   -3.3323    0.0000 C   0  0  0  0  0  0  0  0  0  0  0  0
    6.2781   -0.4203    0.0000 C   0  0  0  0  0  0  0  0  0  0  0  0
    4.6318    0.1178    0.0000 C   0  0  0  0  0  0  0  0  0  0  0  0
    8.1886    2.6375    0.0000 C   0  0  0  0  0  0  0  0  0  0  0  0
    2.0000   -3.8323    0.0000 C   0  0  0  0  0  0  0  0  0  0  0  0
    6.8994    1.4807    0.0000 C   0  0  0  0  0  0  0  0  0  0  0  0
    9.8349    2.0994    0.0000 C   0  0  0  0  0  0  0  0  0  0  0  0
    8.8564    1.8932    0.0000 C   0  0  0  0  0  0  0  0  0  0  0  0
    8.4993    3.5880    0.0000 C   0  0  0  0  0  0  0  0  0  0  0  0
   10.1456    3.0499    0.0000 C   0  0  0  0  0  0  0  0  0  0  0  0
    9.4778    3.7942    0.0000 C   0  0  0  0  0  0  0  0  0  0  0  0
   10.5028    1.3551    0.0000 C   0  0  0  0  0  0  0  0  0  0  0  0
    6.3815   -1.8323    0.0000 H   0  0  0  0  0  0  0  0  0  0  0  0
    3.7144   -0.9606    0.0000 H   0  0  0  0  0  0  0  0  0  0  0  0
    6.2619   -3.9523    0.0000 H   0  0  0  0  0  0  0  0  0  0  0  0
    6.8819   -3.3323    0.0000 H   0  0  0  0  0  0  0  0  0  0  0  0
    6.2619   -2.7123    0.0000 H   0  0  0  0  0  0  0  0  0  0  0  0
    6.8848   -0.2924    0.0000 H   0  0  0  0  0  0  0  0  0  0  0  0
    4.2177    0.5792    0.0000 H   0  0  0  0  0  0  0  0  0  0  0  0
    5.5069    1.7360    0.0000 H   0  0  0  0  0  0  0  0  0  0  0  0
    1.4631   -4.1423    0.0000 H   0  0  0  0  0  0  0  0  0  0  0  0
    8.6638    1.3038    0.0000 H   0  0  0  0  0  0  0  0  0  0  0  0
    2.3291   -1.0223    0.0000 H   0  0  0  0  0  0  0  0  0  0  0  0
    3.4030   -1.0223    0.0000 H   0  0  0  0  0  0  0  0  0  0  0  0
    6.7960    2.8927    0.0000 H   0  0  0  0  0  0  0  0  0  0  0  0
   10.7523    3.1778    0.0000 H   0  0  0  0  0  0  0  0  0  0  0  0
    9.6704    4.3835    0.0000 H   0  0  0  0  0  0  0  0  0  0  0  0
  1 15  1  0  0  0  0
  1 16  1  0  0  0  0
  2 29  1  0  0  0  0
  3 32  1  0  0  0  0
  4 32  1  0  0  0  0
  5 32  1  0  0  0  0
  6 26  2  0  0  0  0
  7 20  1  0  0  0  0
  7 26  1  0  0  0  0
  7 40  1  0  0  0  0
  8 16  2  0  0  0  0
  8 25  1  0  0  0  0
  9 19  1  0  0  0  0
  9 25  2  0  0  0  0
 10 19  1  0  0  0  0
 10 43  1  0  0  0  0
 10 44  1  0  0  0  0
 11 24  1  0  0  0  0
 11 26  1  0  0  0  0
 11 45  1  0  0  0  0
 12 13  1  0  0  0  0
 12 14  1  0  0  0  0
 12 15  2  0  0  0  0
 13 16  1  0  0  0  0
 13 19  2  0  0  0  0
 14 17  2  0  0  0  0
 14 18  1  0  0  0  0
 15 21  1  0  0  0  0
 17 22  1  0  0  0  0
 17 33  1  0  0  0  0
 18 23  2  0  0  0  0
 18 34  1  0  0  0  0
 20 22  2  0  0  0  0
 20 23  1  0  0  0  0
 21 35  1  0  0  0  0
 21 36  1  0  0  0  0
 21 37  1  0  0  0  0
 22 38  1  0  0  0  0
 23 39  1  0  0  0  0
 24 28  1  0  0  0  0
 24 29  2  0  0  0  0
 25 41  1  0  0  0  0
 27 28  2  0  0  0  0
 27 30  1  0  0  0  0
 27 32  1  0  0  0  0
 28 42  1  0  0  0  0
 29 31  1  0  0  0  0
 30 31  2  0  0  0  0
 30 46  1  0  0  0  0
 31 47  1  0  0  0  0
M  END
> <PUBCHEM_COMPOUND_CID>
6540005

> <PUBCHEM_COMPOUND_CANONICALIZED>
1

> <PUBCHEM_CACTVS_COMPLEXITY>
663

> <PUBCHEM_CACTVS_HBOND_ACCEPTOR>
9

> <PUBCHEM_CACTVS_HBOND_DONOR>
3

> <PUBCHEM_CACTVS_ROTATABLE_BOND>
3

> <PUBCHEM_CACTVS_SUBSKEYS>
AAADccB7ocBAAAAAAAAAAAAAAAAAASAAAAA8YIAAAAAAAFgB/AAAHwQQAAAADAiBWhw38dbIEAisAiZjdACD0KlxCrgJ2DAoZJiIKCLg2dGEJAxolAJoyCcQgMAOiAAAQAAAAAAQAACAAAAAAAAAAAAAAA==

> <PUBCHEM_IUPAC_OPENEYE_NAME>
1-[4-(4-amino-6-methyl-thieno[2,3-d]pyrimidin-5-yl)phenyl]-3-[2-fluoro-5-(trifluoromethyl)phenyl]urea

> <PUBCHEM_IUPAC_CAS_NAME>
1-[4-(4-amino-6-methyl-5-thieno[2,3-d]pyrimidinyl)phenyl]-3-[2-fluoro-5-(trifluoromethyl)phenyl]urea

> <PUBCHEM_IUPAC_NAME_MARKUP>
1-[4-(4-amino-6-methylthieno[2,3-d]pyrimidin-5-yl)phenyl]-3-[2-fluoro-5-(trifluoromethyl)phenyl]urea

> <PUBCHEM_IUPAC_NAME>
1-[4-(4-amino-6-methylthieno[2,3-d]pyrimidin-5-yl)phenyl]-3-[2-fluoro-5-(trifluoromethyl)phenyl]urea

> <PUBCHEM_IUPAC_SYSTEMATIC_NAME>
1-[4-(4-azanyl-6-methyl-thieno[2,3-d]pyrimidin-5-yl)phenyl]-3-[2-fluoranyl-5-(trifluoromethyl)phenyl]urea

> <PUBCHEM_IUPAC_TRADITIONAL_NAME>
1-[4-(4-amino-6-methyl-thieno[2,3-d]pyrimidin-5-yl)phenyl]-3-[2-fluoro-5-(trifluoromethyl)phenyl]urea

> <PUBCHEM_IUPAC_INCHI>
InChI=1S/C21H15F4N5OS/c1-10-16(17-18(26)27-9-28-19(17)32-10)11-2-5-13(6-3-11)29-20(31)30-15-8-12(21(23,24)25)4-7-14(15)22/h2-9H,1H3,(H2,26,27,28)(H2,29,30,31)

> <PUBCHEM_IUPAC_INCHIKEY>
GXKSGTIXGWDSGJ-UHFFFAOYSA-N

> <PUBCHEM_XLOGP3_AA>
4.8

> <PUBCHEM_EXACT_MASS>
461.09334394

> <PUBCHEM_MOLECULAR_FORMULA>
C21H15F4N5OS

> <PUBCHEM_MOLECULAR_WEIGHT>
461.4

> <PUBCHEM_SMILES>
CC1=C(C2=C(N=CN=C2S1)N)C3=CC=C(C=C3)NC(=O)NC4=C(C=CC(=C4)C(F)(F)F)F

> <PUBCHEM_OPENEYE_CAN_SMILES>
CC1=C(C2=C(N=CN=C2S1)N)C3=CC=C(C=C3)NC(=O)NC4=C(C=CC(=C4)C(F)(F)F)F

> <PUBCHEM_OPENEYE_ISO_SMILES>
CC1=C(C2=C(N=CN=C2S1)N)C3=CC=C(C=C3)NC(=O)NC4=C(C=CC(=C4)C(F)(F)F)F

> <PUBCHEM_CACTVS_TPSA>
121

> <PUBCHEM_MONOISOTOPIC_WEIGHT>
461.09334394

> <PUBCHEM_TOTAL_CHARGE>
0

> <PUBCHEM_HEAVY_ATOM_COUNT>
32

> <PUBCHEM_ATOM_DEF_STEREO_COUNT>
0

> <PUBCHEM_ATOM_UDEF_STEREO_COUNT>
0

> <PUBCHEM_BOND_DEF_STEREO_COUNT>
0

> <PUBCHEM_BOND_UDEF_STEREO_COUNT>
0

> <PUBCHEM_ISOTOPIC_ATOM_COUNT>
0

> <PUBCHEM_COMPONENT_COUNT>
1

> <PUBCHEM_CACTVS_TAUTO_COUNT>
-1

> <PUBCHEM_COORDINATE_TYPE>
1
5
255

> <PUBCHEM_BONDANNOTATIONS>
1  15  8
1  16  8
12  13  8
12  15  8
13  16  8
13  19  8
14  17  8
14  18  8
17  22  8
18  23  8
20  22  8
20  23  8
24  28  8
24  29  8
27  28  8
27  30  8
29  31  8
30  31  8
8  16  8
8  25  8
9  19  8
9  25  8

$$$$
