49830911
  -OEChem-03202504032D

 41 44  0     0  0  0  0  0  0999 V2000
    4.6783   -0.2277    0.0000 S   0  0  0  0  0  0  0  0  0  0  0  0
    2.8660    2.5770    0.0000 O   0  0  0  0  0  0  0  0  0  0  0  0
    6.2619   -1.1550    0.0000 O   0  0  0  0  0  0  0  0  0  0  0  0
    7.7619   -0.2890    0.0000 N   0  0  0  0  0  0  0  0  0  0  0  0
    6.2619    0.5771    0.0000 N   0  0  0  0  0  0  0  0  0  0  0  0
    4.6783    1.3818    0.0000 N   0  0  0  0  0  0  0  0  0  0  0  0
    9.2619   -1.1550    0.0000 C   0  0  0  0  0  0  0  0  0  0  0  0
    8.2619   -1.1550    0.0000 C   0  0  0  0  0  0  0  0  0  0  0  0
    9.7619   -0.2890    0.0000 C   0  0  0  0  0  0  0  0  0  0  0  0
    9.7619   -2.0210    0.0000 C   0  0  0  0  0  0  0  0  0  0  0  0
    3.7320    1.0770    0.0000 C   0  0  0  0  0  0  0  0  0  0  0  0
    3.7320    0.0771    0.0000 C   0  0  0  0  0  0  0  0  0  0  0  0
    7.7619   -2.0210    0.0000 C   0  0  0  0  0  0  0  0  0  0  0  0
    5.2619    0.5771    0.0000 C   0  0  0  0  0  0  0  0  0  0  0  0
   10.7619   -0.2890    0.0000 C   0  0  0  0  0  0  0  0  0  0  0  0
    9.2619    0.5771    0.0000 C   0  0  0  0  0  0  0  0  0  0  0  0
    9.2619   -2.8870    0.0000 C   0  0  0  0  0  0  0  0  0  0  0  0
    8.2619   -2.8870    0.0000 C   0  0  0  0  0  0  0  0  0  0  0  0
    2.8660    1.5770    0.0000 C   0  0  0  0  0  0  0  0  0  0  0  0
    6.7619   -0.2890    0.0000 C   0  0  0  0  0  0  0  0  0  0  0  0
    2.8660   -0.4229    0.0000 C   0  0  0  0  0  0  0  0  0  0  0  0
    2.0000    1.0770    0.0000 C   0  0  0  0  0  0  0  0  0  0  0  0
   11.2619    0.5771    0.0000 C   0  0  0  0  0  0  0  0  0  0  0  0
    9.7619    1.4431    0.0000 C   0  0  0  0  0  0  0  0  0  0  0  0
    2.0000    0.0771    0.0000 C   0  0  0  0  0  0  0  0  0  0  0  0
   10.7619    1.4431    0.0000 C   0  0  0  0  0  0  0  0  0  0  0  0
   10.3819   -2.0210    0.0000 H   0  0  0  0  0  0  0  0  0  0  0  0
    7.1419   -2.0210    0.0000 H   0  0  0  0  0  0  0  0  0  0  0  0
    8.0719    0.2480    0.0000 H   0  0  0  0  0  0  0  0  0  0  0  0
   11.0719   -0.8259    0.0000 H   0  0  0  0  0  0  0  0  0  0  0  0
    8.6419    0.5771    0.0000 H   0  0  0  0  0  0  0  0  0  0  0  0
    9.5719   -3.4240    0.0000 H   0  0  0  0  0  0  0  0  0  0  0  0
    7.9519   -3.4240    0.0000 H   0  0  0  0  0  0  0  0  0  0  0  0
    2.8660   -1.0430    0.0000 H   0  0  0  0  0  0  0  0  0  0  0  0
    6.5719    1.1140    0.0000 H   0  0  0  0  0  0  0  0  0  0  0  0
    1.4631    1.3870    0.0000 H   0  0  0  0  0  0  0  0  0  0  0  0
    1.4631   -0.2329    0.0000 H   0  0  0  0  0  0  0  0  0  0  0  0
   11.8819    0.5771    0.0000 H   0  0  0  0  0  0  0  0  0  0  0  0
    9.4519    1.9800    0.0000 H   0  0  0  0  0  0  0  0  0  0  0  0
   11.0719    1.9800    0.0000 H   0  0  0  0  0  0  0  0  0  0  0  0
    2.3291    2.8870    0.0000 H   0  0  0  0  0  0  0  0  0  0  0  0
  1 12  1  0  0  0  0
  1 14  1  0  0  0  0
  2 19  1  0  0  0  0
  2 41  1  0  0  0  0
  3 20  2  0  0  0  0
  4  8  1  0  0  0  0
  4 20  1  0  0  0  0
  4 29  1  0  0  0  0
  5 14  1  0  0  0  0
  5 20  1  0  0  0  0
  5 35  1  0  0  0  0
  6 11  1  0  0  0  0
  6 14  2  0  0  0  0
  7  8  1  0  0  0  0
  7  9  1  0  0  0  0
  7 10  2  0  0  0  0
  8 13  2  0  0  0  0
  9 15  2  0  0  0  0
  9 16  1  0  0  0  0
 10 17  1  0  0  0  0
 10 27  1  0  0  0  0
 11 12  1  0  0  0  0
 11 19  2  0  0  0  0
 12 21  2  0  0  0  0
 13 18  1  0  0  0  0
 13 28  1  0  0  0  0
 15 23  1  0  0  0  0
 15 30  1  0  0  0  0
 16 24  2  0  0  0  0
 16 31  1  0  0  0  0
 17 18  2  0  0  0  0
 17 32  1  0  0  0  0
 18 33  1  0  0  0  0
 19 22  1  0  0  0  0
 21 25  1  0  0  0  0
 21 34  1  0  0  0  0
 22 25  2  0  0  0  0
 22 36  1  0  0  0  0
 23 26  2  0  0  0  0
 23 38  1  0  0  0  0
 24 26  1  0  0  0  0
 24 39  1  0  0  0  0
 25 37  1  0  0  0  0
 26 40  1  0  0  0  0
M  END
> <PUBCHEM_COMPOUND_CID>
49830911

> <PUBCHEM_COMPOUND_CANONICALIZED>
1

> <PUBCHEM_CACTVS_COMPLEXITY>
486

> <PUBCHEM_CACTVS_HBOND_ACCEPTOR>
4

> <PUBCHEM_CACTVS_HBOND_DONOR>
3

> <PUBCHEM_CACTVS_ROTATABLE_BOND>
3

> <PUBCHEM_CACTVS_SUBSKEYS>
AAADccB7MABAAAAAAAAAAAAAAAAAAWAAAAAwYMAAAAAAAFgB9AAAHgQQCAAADAyB3gAx17LIEgisAyRidASD8KlhajlJmDwnbJiKJqLykZOEcAhs1RNY2CeQwMAOgAAABAACEQAAAAAIAAQiAAAAAAAAAA==

> <PUBCHEM_IUPAC_OPENEYE_NAME>
1-(4-hydroxy-1,3-benzothiazol-2-yl)-3-(2-phenylphenyl)urea

> <PUBCHEM_IUPAC_CAS_NAME>
1-(4-hydroxy-1,3-benzothiazol-2-yl)-3-(2-phenylphenyl)urea

> <PUBCHEM_IUPAC_NAME_MARKUP>
1-(4-hydroxy-1,3-benzothiazol-2-yl)-3-(2-phenylphenyl)urea

> <PUBCHEM_IUPAC_NAME>
1-(4-hydroxy-1,3-benzothiazol-2-yl)-3-(2-phenylphenyl)urea

> <PUBCHEM_IUPAC_SYSTEMATIC_NAME>
1-(4-oxidanyl-1,3-benzothiazol-2-yl)-3-(2-phenylphenyl)urea

> <PUBCHEM_IUPAC_TRADITIONAL_NAME>
1-(4-hydroxy-1,3-benzothiazol-2-yl)-3-(2-phenylphenyl)urea

> <PUBCHEM_IUPAC_INCHI>
InChI=1S/C20H15N3O2S/c24-16-11-6-12-17-18(16)22-20(26-17)23-19(25)21-15-10-5-4-9-14(15)13-7-2-1-3-8-13/h1-12,24H,(H2,21,22,23,25)

> <PUBCHEM_IUPAC_INCHIKEY>
FWQLGWJRPGEROE-UHFFFAOYSA-N

> <PUBCHEM_XLOGP3_AA>
4.5

> <PUBCHEM_EXACT_MASS>
361.08849790

> <PUBCHEM_MOLECULAR_FORMULA>
C20H15N3O2S

> <PUBCHEM_MOLECULAR_WEIGHT>
361.4

> <PUBCHEM_SMILES>
C1=CC=C(C=C1)C2=CC=CC=C2NC(=O)NC3=NC4=C(C=CC=C4S3)O

> <PUBCHEM_OPENEYE_CAN_SMILES>
C1=CC=C(C=C1)C2=CC=CC=C2NC(=O)NC3=NC4=C(C=CC=C4S3)O

> <PUBCHEM_OPENEYE_ISO_SMILES>
C1=CC=C(C=C1)C2=CC=CC=C2NC(=O)NC3=NC4=C(C=CC=C4S3)O

> <PUBCHEM_CACTVS_TPSA>
102

> <PUBCHEM_MONOISOTOPIC_WEIGHT>
361.08849790

> <PUBCHEM_TOTAL_CHARGE>
0

> <PUBCHEM_HEAVY_ATOM_COUNT>
26

> <PUBCHEM_ATOM_DEF_STEREO_COUNT>
0

> <PUBCHEM_ATOM_UDEF_STEREO_COUNT>
0

> <PUBCHEM_BOND_DEF_STEREO_COUNT>
0

> <PUBCHEM_BOND_UDEF_STEREO_COUNT>
0

> <PUBCHEM_ISOTOPIC_ATOM_COUNT>
0

> <PUBCHEM_COMPONENT_COUNT>
1

> <PUBCHEM_CACTVS_TAUTO_COUNT>
-1

> <PUBCHEM_COORDINATE_TYPE>
1
5
255

> <PUBCHEM_BONDANNOTATIONS>
1  12  8
1  14  8
10  17  8
11  12  8
11  19  8
12  21  8
13  18  8
15  23  8
16  24  8
17  18  8
19  22  8
21  25  8
22  25  8
23  26  8
24  26  8
6  11  8
6  14  8
7  10  8
7  8  8
8  13  8
9  15  8
9  16  8

$$$$
