6620116
  -OEChem-03202500172D

 38 41  0     0  0  0  0  0  0999 V2000
    2.0000   -1.1718    0.0000 Cl  0  0  0  0  0  0  0  0  0  0  0  0
    8.9282    0.8281    0.0000 N   0  0  0  0  0  0  0  0  0  0  0  0
    6.3301    0.3281    0.0000 N   0  0  0  0  0  0  0  0  0  0  0  0
    8.0622    0.3281    0.0000 N   0  0  0  0  0  0  0  0  0  0  0  0
   10.4580    1.3282    0.0000 N   0  0  0  0  0  0  0  0  0  0  0  0
    9.8744    2.1329    0.0000 N   0  0  0  0  0  0  0  0  0  0  0  0
    9.8744    0.5234    0.0000 C   0  0  0  0  0  0  0  0  0  0  0  0
    5.4641    0.8281    0.0000 C   0  0  0  0  0  0  0  0  0  0  0  0
    8.9282    1.8282    0.0000 C   0  0  0  0  0  0  0  0  0  0  0  0
    7.1962    0.8281    0.0000 C   0  0  0  0  0  0  0  0  0  0  0  0
   10.1851   -0.4271    0.0000 C   0  0  0  0  0  0  0  0  0  0  0  0
    4.5981    0.3281    0.0000 C   0  0  0  0  0  0  0  0  0  0  0  0
    8.0622    2.3282    0.0000 C   0  0  0  0  0  0  0  0  0  0  0  0
    7.1962    1.8282    0.0000 C   0  0  0  0  0  0  0  0  0  0  0  0
    9.5172   -1.1714    0.0000 C   0  0  0  0  0  0  0  0  0  0  0  0
   11.1636   -0.6333    0.0000 C   0  0  0  0  0  0  0  0  0  0  0  0
    3.7320    0.8281    0.0000 C   0  0  0  0  0  0  0  0  0  0  0  0
    4.5981   -0.6719    0.0000 C   0  0  0  0  0  0  0  0  0  0  0  0
    2.8660    0.3281    0.0000 C   0  0  0  0  0  0  0  0  0  0  0  0
    3.7320   -1.1718    0.0000 C   0  0  0  0  0  0  0  0  0  0  0  0
    9.8279   -2.1219    0.0000 C   0  0  0  0  0  0  0  0  0  0  0  0
   11.4743   -1.5838    0.0000 C   0  0  0  0  0  0  0  0  0  0  0  0
    2.8660   -0.6719    0.0000 C   0  0  0  0  0  0  0  0  0  0  0  0
   10.8064   -2.3282    0.0000 C   0  0  0  0  0  0  0  0  0  0  0  0
    5.8626    1.3031    0.0000 H   0  0  0  0  0  0  0  0  0  0  0  0
    5.0656    1.3031    0.0000 H   0  0  0  0  0  0  0  0  0  0  0  0
    6.3301   -0.2919    0.0000 H   0  0  0  0  0  0  0  0  0  0  0  0
    8.0622    2.9482    0.0000 H   0  0  0  0  0  0  0  0  0  0  0  0
    6.6592    2.1382    0.0000 H   0  0  0  0  0  0  0  0  0  0  0  0
    3.7320    1.4482    0.0000 H   0  0  0  0  0  0  0  0  0  0  0  0
    5.1350   -0.9819    0.0000 H   0  0  0  0  0  0  0  0  0  0  0  0
    8.9106   -1.0436    0.0000 H   0  0  0  0  0  0  0  0  0  0  0  0
   11.5777   -0.1719    0.0000 H   0  0  0  0  0  0  0  0  0  0  0  0
    2.3291    0.6381    0.0000 H   0  0  0  0  0  0  0  0  0  0  0  0
    3.7320   -1.7918    0.0000 H   0  0  0  0  0  0  0  0  0  0  0  0
    9.4138   -2.5834    0.0000 H   0  0  0  0  0  0  0  0  0  0  0  0
   12.0809   -1.7117    0.0000 H   0  0  0  0  0  0  0  0  0  0  0  0
   10.9990   -2.9175    0.0000 H   0  0  0  0  0  0  0  0  0  0  0  0
  1 23  1  0  0  0  0
  2  4  1  0  0  0  0
  2  7  1  0  0  0  0
  2  9  1  0  0  0  0
  3  8  1  0  0  0  0
  3 10  1  0  0  0  0
  3 27  1  0  0  0  0
  4 10  2  0  0  0  0
  5  6  1  0  0  0  0
  5  7  2  0  0  0  0
  6  9  2  0  0  0  0
  7 11  1  0  0  0  0
  8 12  1  0  0  0  0
  8 25  1  0  0  0  0
  8 26  1  0  0  0  0
  9 13  1  0  0  0  0
 10 14  1  0  0  0  0
 11 15  2  0  0  0  0
 11 16  1  0  0  0  0
 12 17  2  0  0  0  0
 12 18  1  0  0  0  0
 13 14  2  0  0  0  0
 13 28  1  0  0  0  0
 14 29  1  0  0  0  0
 15 21  1  0  0  0  0
 15 32  1  0  0  0  0
 16 22  2  0  0  0  0
 16 33  1  0  0  0  0
 17 19  1  0  0  0  0
 17 30  1  0  0  0  0
 18 20  2  0  0  0  0
 18 31  1  0  0  0  0
 19 23  2  0  0  0  0
 19 34  1  0  0  0  0
 20 23  1  0  0  0  0
 20 35  1  0  0  0  0
 21 24  2  0  0  0  0
 21 36  1  0  0  0  0
 22 24  1  0  0  0  0
 22 37  1  0  0  0  0
 24 38  1  0  0  0  0
M  END
> <PUBCHEM_COMPOUND_CID>
6620116

> <PUBCHEM_COMPOUND_CANONICALIZED>
1

> <PUBCHEM_CACTVS_COMPLEXITY>
395

> <PUBCHEM_CACTVS_HBOND_ACCEPTOR>
4

> <PUBCHEM_CACTVS_HBOND_DONOR>
1

> <PUBCHEM_CACTVS_ROTATABLE_BOND>
4

> <PUBCHEM_CACTVS_SUBSKEYS>
AAADccB7gAAEAAAAAAAAAAAAAAAAAWAAAAA8YIAAAAAAAFgB9AAAHAIYAAAADALBGyQxsJ7IEACiAiJiZACShCshB6AdmKA4ZpiIKKLBm5GEoAhwmALIyCcQgAAOBAAAAAAAAAAIAAAAAAAAAAAAAAAAAA==

> <PUBCHEM_IUPAC_OPENEYE_NAME>
N-[(4-chlorophenyl)methyl]-3-phenyl-[1,2,4]triazolo[4,3-b]pyridazin-6-amine

> <PUBCHEM_IUPAC_CAS_NAME>
N-[(4-chlorophenyl)methyl]-3-phenyl-[1,2,4]triazolo[4,3-b]pyridazin-6-amine

> <PUBCHEM_IUPAC_NAME_MARKUP>
<I>N</I>-[(4-chlorophenyl)methyl]-3-phenyl-[1,2,4]triazolo[4,3-b]pyridazin-6-amine

> <PUBCHEM_IUPAC_NAME>
N-[(4-chlorophenyl)methyl]-3-phenyl-[1,2,4]triazolo[4,3-b]pyridazin-6-amine

> <PUBCHEM_IUPAC_SYSTEMATIC_NAME>
N-[(4-chlorophenyl)methyl]-3-phenyl-[1,2,4]triazolo[4,3-b]pyridazin-6-amine

> <PUBCHEM_IUPAC_TRADITIONAL_NAME>
(4-chlorobenzyl)-(3-phenyl-[1,2,4]triazolo[4,3-b]pyridazin-6-yl)amine

> <PUBCHEM_IUPAC_INCHI>
InChI=1S/C18H14ClN5/c19-15-8-6-13(7-9-15)12-20-16-10-11-17-21-22-18(24(17)23-16)14-4-2-1-3-5-14/h1-11H,12H2,(H,20,23)

> <PUBCHEM_IUPAC_INCHIKEY>
WHKWRDQKKUPBMN-UHFFFAOYSA-N

> <PUBCHEM_XLOGP3_AA>
3.8

> <PUBCHEM_EXACT_MASS>
335.0937732

> <PUBCHEM_MOLECULAR_FORMULA>
C18H14ClN5

> <PUBCHEM_MOLECULAR_WEIGHT>
335.8

> <PUBCHEM_SMILES>
C1=CC=C(C=C1)C2=NN=C3N2N=C(C=C3)NCC4=CC=C(C=C4)Cl

> <PUBCHEM_OPENEYE_CAN_SMILES>
C1=CC=C(C=C1)C2=NN=C3N2N=C(C=C3)NCC4=CC=C(C=C4)Cl

> <PUBCHEM_OPENEYE_ISO_SMILES>
C1=CC=C(C=C1)C2=NN=C3N2N=C(C=C3)NCC4=CC=C(C=C4)Cl

> <PUBCHEM_CACTVS_TPSA>
55.1

> <PUBCHEM_MONOISOTOPIC_WEIGHT>
335.0937732

> <PUBCHEM_TOTAL_CHARGE>
0

> <PUBCHEM_HEAVY_ATOM_COUNT>
24

> <PUBCHEM_ATOM_DEF_STEREO_COUNT>
0

> <PUBCHEM_ATOM_UDEF_STEREO_COUNT>
0

> <PUBCHEM_BOND_DEF_STEREO_COUNT>
0

> <PUBCHEM_BOND_UDEF_STEREO_COUNT>
0

> <PUBCHEM_ISOTOPIC_ATOM_COUNT>
0

> <PUBCHEM_COMPONENT_COUNT>
1

> <PUBCHEM_CACTVS_TAUTO_COUNT>
-1

> <PUBCHEM_COORDINATE_TYPE>
1
5
255

> <PUBCHEM_BONDANNOTATIONS>
10  14  8
11  15  8
11  16  8
12  17  8
12  18  8
13  14  8
15  21  8
16  22  8
17  19  8
18  20  8
19  23  8
2  4  8
2  7  8
2  9  8
20  23  8
21  24  8
22  24  8
4  10  8
5  6  8
5  7  8
6  9  8
9  13  8

$$$$
