56835089
  -OEChem-03202500402D

 55 60  0     1  0  0  0  0  0999 V2000
   10.2838   -2.4282    0.0000 F   0  0  0  0  0  0  0  0  0  0  0  0
    4.3910   -3.0833    0.0000 O   0  0  0  0  0  0  0  0  0  0  0  0
    5.7021    1.5379    0.0000 N   0  0  3  0  0  0  0  0  0  0  0  0
    4.7511   -1.3891    0.0000 N   0  0  0  0  0  0  0  0  0  0  0  0
    7.4622    3.4347    0.0000 N   0  0  0  0  0  0  0  0  0  0  0  0
    6.7764   -1.8823    0.0000 N   0  0  0  0  0  0  0  0  0  0  0  0
    4.7511    0.2289    0.0000 C   0  0  2  0  0  0  0  0  0  0  0  0
    5.7021    0.5379    0.0000 C   0  0  0  0  0  0  0  0  0  0  0  0
    4.1633    1.0379    0.0000 C   0  0  0  0  0  0  0  0  0  0  0  0
    4.7511    1.8469    0.0000 C   0  0  0  0  0  0  0  0  0  0  0  0
    5.3388   -0.5801    0.0000 C   0  0  0  0  0  0  0  0  0  0  0  0
    6.5111    2.1257    0.0000 C   0  0  3  0  0  0  0  0  0  0  0  0
    3.8000   -0.0801    0.0000 C   0  0  0  0  0  0  0  0  0  0  0  0
    3.8000   -1.0801    0.0000 C   0  0  0  0  0  0  0  0  0  0  0  0
    7.4622    1.8167    0.0000 C   0  0  0  0  0  0  0  0  0  0  0  0
    6.5111    3.1257    0.0000 C   0  0  0  0  0  0  0  0  0  0  0  0
    8.0500    2.6257    0.0000 C   0  0  0  0  0  0  0  0  0  0  0  0
    2.9061    0.4545    0.0000 C   0  0  0  0  0  0  0  0  0  0  0  0
    2.9061   -1.6148    0.0000 C   0  0  0  0  0  0  0  0  0  0  0  0
    5.0601   -2.3402    0.0000 C   0  0  0  0  0  0  0  0  0  0  0  0
    2.0000   -0.0593    0.0000 C   0  0  0  0  0  0  0  0  0  0  0  0
    2.0000   -1.1009    0.0000 C   0  0  0  0  0  0  0  0  0  0  0  0
    6.0382   -2.5481    0.0000 C   0  0  0  0  0  0  0  0  0  0  0  0
    6.4418   -3.4566    0.0000 C   0  0  0  0  0  0  0  0  0  0  0  0
    7.6386   -2.3771    0.0000 C   0  0  0  0  0  0  0  0  0  0  0  0
    7.4307   -3.3552    0.0000 C   0  0  0  0  0  0  0  0  0  0  0  0
    8.5896   -2.0681    0.0000 C   0  0  0  0  0  0  0  0  0  0  0  0
    8.1738   -4.0244    0.0000 C   0  0  0  0  0  0  0  0  0  0  0  0
    9.3328   -2.7372    0.0000 C   0  0  0  0  0  0  0  0  0  0  0  0
    9.1249   -3.7154    0.0000 C   0  0  0  0  0  0  0  0  0  0  0  0
    5.8310   -0.0685    0.0000 H   0  0  0  0  0  0  0  0  0  0  0  0
    6.3187    0.6027    0.0000 H   0  0  0  0  0  0  0  0  0  0  0  0
    3.7025    1.4528    0.0000 H   0  0  0  0  0  0  0  0  0  0  0  0
    3.7025    0.6231    0.0000 H   0  0  0  0  0  0  0  0  0  0  0  0
    5.0032    2.4133    0.0000 H   0  0  0  0  0  0  0  0  0  0  0  0
    4.2141    2.1569    0.0000 H   0  0  0  0  0  0  0  0  0  0  0  0
    5.7996   -0.9950    0.0000 H   0  0  0  0  0  0  0  0  0  0  0  0
    5.7996   -0.1653    0.0000 H   0  0  0  0  0  0  0  0  0  0  0  0
    6.6081    1.5133    0.0000 H   0  0  0  0  0  0  0  0  0  0  0  0
    7.2100    1.2503    0.0000 H   0  0  0  0  0  0  0  0  0  0  0  0
    7.9991    1.5067    0.0000 H   0  0  0  0  0  0  0  0  0  0  0  0
    6.3822    3.7322    0.0000 H   0  0  0  0  0  0  0  0  0  0  0  0
    5.8945    3.0609    0.0000 H   0  0  0  0  0  0  0  0  0  0  0  0
    8.5107    2.2108    0.0000 H   0  0  0  0  0  0  0  0  0  0  0  0
    8.5107    3.0406    0.0000 H   0  0  0  0  0  0  0  0  0  0  0  0
    2.9132    1.0745    0.0000 H   0  0  0  0  0  0  0  0  0  0  0  0
    7.6538    4.0244    0.0000 H   0  0  0  0  0  0  0  0  0  0  0  0
    2.9132   -2.2347    0.0000 H   0  0  0  0  0  0  0  0  0  0  0  0
    1.4643    0.2528    0.0000 H   0  0  0  0  0  0  0  0  0  0  0  0
    1.4643   -1.4130    0.0000 H   0  0  0  0  0  0  0  0  0  0  0  0
    6.7105   -1.2658    0.0000 H   0  0  0  0  0  0  0  0  0  0  0  0
    6.1308   -3.9930    0.0000 H   0  0  0  0  0  0  0  0  0  0  0  0
    8.7186   -1.4616    0.0000 H   0  0  0  0  0  0  0  0  0  0  0  0
    8.0449   -4.6308    0.0000 H   0  0  0  0  0  0  0  0  0  0  0  0
    9.5856   -4.1302    0.0000 H   0  0  0  0  0  0  0  0  0  0  0  0
  1 29  1  0  0  0  0
  2 20  2  0  0  0  0
  3  8  1  0  0  0  0
  3 10  1  0  0  0  0
  3 12  1  0  0  0  0
  4 11  1  0  0  0  0
  4 14  1  0  0  0  0
  4 20  1  0  0  0  0
  5 16  1  0  0  0  0
  5 17  1  0  0  0  0
  5 47  1  0  0  0  0
  6 23  1  0  0  0  0
  6 25  1  0  0  0  0
  6 51  1  0  0  0  0
  7  8  1  0  0  0  0
  7  9  1  1  0  0  0
  7 11  1  0  0  0  0
  7 13  1  0  0  0  0
  8 31  1  0  0  0  0
  8 32  1  0  0  0  0
  9 10  1  0  0  0  0
  9 33  1  0  0  0  0
  9 34  1  0  0  0  0
 10 35  1  0  0  0  0
 10 36  1  0  0  0  0
 11 37  1  0  0  0  0
 11 38  1  0  0  0  0
 12 15  1  0  0  0  0
 12 16  1  0  0  0  0
 12 39  1  0  0  0  0
 13 14  1  0  0  0  0
 13 18  2  0  0  0  0
 14 19  2  0  0  0  0
 15 17  1  0  0  0  0
 15 40  1  0  0  0  0
 15 41  1  0  0  0  0
 16 42  1  0  0  0  0
 16 43  1  0  0  0  0
 17 44  1  0  0  0  0
 17 45  1  0  0  0  0
 18 21  1  0  0  0  0
 18 46  1  0  0  0  0
 19 22  1  0  0  0  0
 19 48  1  0  0  0  0
 20 23  1  0  0  0  0
 21 22  2  0  0  0  0
 21 49  1  0  0  0  0
 22 50  1  0  0  0  0
 23 24  2  0  0  0  0
 24 26  1  0  0  0  0
 24 52  1  0  0  0  0
 25 26  2  0  0  0  0
 25 27  1  0  0  0  0
 26 28  1  0  0  0  0
 27 29  2  0  0  0  0
 27 53  1  0  0  0  0
 28 30  2  0  0  0  0
 28 54  1  0  0  0  0
 29 30  1  0  0  0  0
 30 55  1  0  0  0  0
M  END
> <PUBCHEM_COMPOUND_CID>
56835089

> <PUBCHEM_COMPOUND_CANONICALIZED>
1

> <PUBCHEM_CACTVS_COMPLEXITY>
676

> <PUBCHEM_CACTVS_HBOND_ACCEPTOR>
4

> <PUBCHEM_CACTVS_HBOND_DONOR>
2

> <PUBCHEM_CACTVS_ROTATABLE_BOND>
2

> <PUBCHEM_CACTVS_SUBSKEYS>
AAADceB7oQAAAAAAAAAAAAAAAAAAAWLFiwAwYAAAAAAAAFgB9AAAHwAQAAAADijBngwwwPPJkACoAyVyVACCgCAnAiAImaG4ZNgIYPLA1bGUIQhglgDIyYcYicCfgAAAAAACAAAAAAAAAAQAAAAAAAAAAA==

> <PUBCHEM_IUPAC_OPENEYE_NAME>
(6-fluoro-1H-indol-2-yl)-[(3R)-1'-pyrrolidin-3-ylspiro[indoline-3,3'-pyrrolidine]-1-yl]methanone

> <PUBCHEM_IUPAC_CAS_NAME>
(6-fluoro-1H-indol-2-yl)-[(3R)-1'-(3-pyrrolidinyl)-1-spiro[2H-indole-3,3'-pyrrolidine]yl]methanone

> <PUBCHEM_IUPAC_NAME_MARKUP>
(6-fluoro-1<I>H</I>-indol-2-yl)-[(3<I>R</I>)-1&apos;-pyrrolidin-3-ylspiro[2<I>H</I>-indole-3,3&apos;-pyrrolidine]-1-yl]methanone

> <PUBCHEM_IUPAC_NAME>
(6-fluoro-1H-indol-2-yl)-[(3R)-1'-pyrrolidin-3-ylspiro[2H-indole-3,3'-pyrrolidine]-1-yl]methanone

> <PUBCHEM_IUPAC_SYSTEMATIC_NAME>
(6-fluoranyl-1H-indol-2-yl)-[(3R)-1'-pyrrolidin-3-ylspiro[2H-indole-3,3'-pyrrolidine]-1-yl]methanone

> <PUBCHEM_IUPAC_TRADITIONAL_NAME>
(6-fluoro-1H-indol-2-yl)-[(3R)-1'-pyrrolidin-3-ylspiro[indoline-3,3'-pyrrolidine]-1-yl]methanone

> <PUBCHEM_IUPAC_INCHI>
InChI=1S/C24H25FN4O/c25-17-6-5-16-11-21(27-20(16)12-17)23(30)29-15-24(19-3-1-2-4-22(19)29)8-10-28(14-24)18-7-9-26-13-18/h1-6,11-12,18,26-27H,7-10,13-15H2/t18?,24-/m1/s1

> <PUBCHEM_IUPAC_INCHIKEY>
FTHSNABZISUYPK-VCUSLETLSA-N

> <PUBCHEM_XLOGP3_AA>
3.3

> <PUBCHEM_EXACT_MASS>
404.20123960

> <PUBCHEM_MOLECULAR_FORMULA>
C24H25FN4O

> <PUBCHEM_MOLECULAR_WEIGHT>
404.5

> <PUBCHEM_SMILES>
C1CNCC1N2CC[C@@]3(C2)CN(C4=CC=CC=C34)C(=O)C5=CC6=C(N5)C=C(C=C6)F

> <PUBCHEM_OPENEYE_CAN_SMILES>
C1CNCC1N2CCC3(C2)CN(C4=CC=CC=C34)C(=O)C5=CC6=C(N5)C=C(C=C6)F

> <PUBCHEM_OPENEYE_ISO_SMILES>
C1CNCC1N2CC[C@@]3(C2)CN(C4=CC=CC=C34)C(=O)C5=CC6=C(N5)C=C(C=C6)F

> <PUBCHEM_CACTVS_TPSA>
51.4

> <PUBCHEM_MONOISOTOPIC_WEIGHT>
404.20123960

> <PUBCHEM_TOTAL_CHARGE>
0

> <PUBCHEM_HEAVY_ATOM_COUNT>
30

> <PUBCHEM_ATOM_DEF_STEREO_COUNT>
1

> <PUBCHEM_ATOM_UDEF_STEREO_COUNT>
1

> <PUBCHEM_BOND_DEF_STEREO_COUNT>
0

> <PUBCHEM_BOND_UDEF_STEREO_COUNT>
0

> <PUBCHEM_ISOTOPIC_ATOM_COUNT>
0

> <PUBCHEM_COMPONENT_COUNT>
1

> <PUBCHEM_CACTVS_TAUTO_COUNT>
-1

> <PUBCHEM_COORDINATE_TYPE>
1
5
255

> <PUBCHEM_BONDANNOTATIONS>
13  14  8
13  18  8
14  19  8
18  21  8
19  22  8
21  22  8
23  24  8
24  26  8
25  26  8
25  27  8
26  28  8
27  29  8
28  30  8
29  30  8
12  3  3
6  23  8
6  25  8
7  9  5

$$$$
