2858224
  -OEChem-03202503182D

 35 37  0     0  0  0  0  0  0999 V2000
    7.7619   -2.1651    0.0000 Br  0  0  0  0  0  0  0  0  0  0  0  0
    9.7619    1.2990    0.0000 O   0  0  0  0  0  0  0  0  0  0  0  0
   10.7619   -0.4330    0.0000 O   0  0  0  0  0  0  0  0  0  0  0  0
    4.6783    1.2377    0.0000 N   0  0  0  0  0  0  0  0  0  0  0  0
    4.6783   -0.3717    0.0000 N   0  0  0  0  0  0  0  0  0  0  0  0
    7.2619    2.1651    0.0000 N   0  0  0  0  0  0  0  0  0  0  0  0
    3.7320    0.9330    0.0000 C   0  0  0  0  0  0  0  0  0  0  0  0
    3.7320   -0.0670    0.0000 C   0  0  0  0  0  0  0  0  0  0  0  0
    5.2619    0.4330    0.0000 C   0  0  0  0  0  0  0  0  0  0  0  0
    6.2619    0.4330    0.0000 C   0  0  0  0  0  0  0  0  0  0  0  0
    7.7619   -0.4330    0.0000 C   0  0  0  0  0  0  0  0  0  0  0  0
    6.7619   -0.4330    0.0000 C   0  0  0  0  0  0  0  0  0  0  0  0
    2.8660    1.4330    0.0000 C   0  0  0  0  0  0  0  0  0  0  0  0
    2.8660   -0.5670    0.0000 C   0  0  0  0  0  0  0  0  0  0  0  0
    8.2619    0.4330    0.0000 C   0  0  0  0  0  0  0  0  0  0  0  0
    8.2619   -1.2990    0.0000 C   0  0  0  0  0  0  0  0  0  0  0  0
    9.2619    0.4330    0.0000 C   0  0  0  0  0  0  0  0  0  0  0  0
    2.0000    0.9330    0.0000 C   0  0  0  0  0  0  0  0  0  0  0  0
    2.0000   -0.0670    0.0000 C   0  0  0  0  0  0  0  0  0  0  0  0
    9.7619   -0.4330    0.0000 C   0  0  0  0  0  0  0  0  0  0  0  0
    9.2619   -1.2990    0.0000 C   0  0  0  0  0  0  0  0  0  0  0  0
    6.7619    1.2990    0.0000 C   0  0  0  0  0  0  0  0  0  0  0  0
   10.7619    1.2990    0.0000 C   0  0  0  0  0  0  0  0  0  0  0  0
    4.8709    1.8271    0.0000 H   0  0  0  0  0  0  0  0  0  0  0  0
    6.4519   -0.9699    0.0000 H   0  0  0  0  0  0  0  0  0  0  0  0
    2.8660    2.0530    0.0000 H   0  0  0  0  0  0  0  0  0  0  0  0
    2.8660   -1.1870    0.0000 H   0  0  0  0  0  0  0  0  0  0  0  0
    7.9519    0.9699    0.0000 H   0  0  0  0  0  0  0  0  0  0  0  0
    1.4631    1.2430    0.0000 H   0  0  0  0  0  0  0  0  0  0  0  0
    1.4631   -0.3770    0.0000 H   0  0  0  0  0  0  0  0  0  0  0  0
    9.5719   -1.8360    0.0000 H   0  0  0  0  0  0  0  0  0  0  0  0
   11.0719   -0.9699    0.0000 H   0  0  0  0  0  0  0  0  0  0  0  0
   10.7619    0.6790    0.0000 H   0  0  0  0  0  0  0  0  0  0  0  0
   11.3819    1.2990    0.0000 H   0  0  0  0  0  0  0  0  0  0  0  0
   10.7619    1.9190    0.0000 H   0  0  0  0  0  0  0  0  0  0  0  0
  1 16  1  0  0  0  0
  2 17  1  0  0  0  0
  2 23  1  0  0  0  0
  3 20  1  0  0  0  0
  3 32  1  0  0  0  0
  4  7  1  0  0  0  0
  4  9  1  0  0  0  0
  4 24  1  0  0  0  0
  5  8  1  0  0  0  0
  5  9  2  0  0  0  0
  6 22  3  0  0  0  0
  7  8  1  0  0  0  0
  7 13  2  0  0  0  0
  8 14  2  0  0  0  0
  9 10  1  0  0  0  0
 10 12  2  3  0  0  0
 10 22  1  0  0  0  0
 11 12  1  0  0  0  0
 11 15  2  0  0  0  0
 11 16  1  0  0  0  0
 12 25  1  0  0  0  0
 13 18  1  0  0  0  0
 13 26  1  0  0  0  0
 14 19  1  0  0  0  0
 14 27  1  0  0  0  0
 15 17  1  0  0  0  0
 15 28  1  0  0  0  0
 16 21  2  0  0  0  0
 17 20  2  0  0  0  0
 18 19  2  0  0  0  0
 18 29  1  0  0  0  0
 19 30  1  0  0  0  0
 20 21  1  0  0  0  0
 21 31  1  0  0  0  0
 23 33  1  0  0  0  0
 23 34  1  0  0  0  0
 23 35  1  0  0  0  0
M  END
> <PUBCHEM_COMPOUND_CID>
2858224

> <PUBCHEM_COMPOUND_CANONICALIZED>
1

> <PUBCHEM_CACTVS_COMPLEXITY>
503

> <PUBCHEM_CACTVS_HBOND_ACCEPTOR>
4

> <PUBCHEM_CACTVS_HBOND_DONOR>
2

> <PUBCHEM_CACTVS_ROTATABLE_BOND>
3

> <PUBCHEM_CACTVS_SUBSKEYS>
AAADccB7MAAAEAAAAAAAAAAAAAAAAWAAAAAwYAAAAAAAAFgB9AAAHgBQCAABrAyBnwIz1rbJlgCwByZiZACiiC2hMqQJmSA2/LiN7qLGuZuUcCts0BPL+jeQwBAOIBABAIAAwCBAIAIBAAGAQAAAAAAAAA==

> <PUBCHEM_IUPAC_OPENEYE_NAME>
2-(1H-benzimidazol-2-yl)-3-(2-bromo-4-hydroxy-5-methoxy-phenyl)prop-2-enenitrile

> <PUBCHEM_IUPAC_CAS_NAME>
2-(1H-benzimidazol-2-yl)-3-(2-bromo-4-hydroxy-5-methoxyphenyl)-2-propenenitrile

> <PUBCHEM_IUPAC_NAME_MARKUP>
2-(1<I>H</I>-benzimidazol-2-yl)-3-(2-bromo-4-hydroxy-5-methoxyphenyl)prop-2-enenitrile

> <PUBCHEM_IUPAC_NAME>
2-(1H-benzimidazol-2-yl)-3-(2-bromo-4-hydroxy-5-methoxyphenyl)prop-2-enenitrile

> <PUBCHEM_IUPAC_SYSTEMATIC_NAME>
2-(1H-benzimidazol-2-yl)-3-(2-bromanyl-5-methoxy-4-oxidanyl-phenyl)prop-2-enenitrile

> <PUBCHEM_IUPAC_TRADITIONAL_NAME>
2-(1H-benzimidazol-2-yl)-3-(2-bromo-4-hydroxy-5-methoxy-phenyl)acrylonitrile

> <PUBCHEM_IUPAC_INCHI>
InChI=1S/C17H12BrN3O2/c1-23-16-7-10(12(18)8-15(16)22)6-11(9-19)17-20-13-4-2-3-5-14(13)21-17/h2-8,22H,1H3,(H,20,21)

> <PUBCHEM_IUPAC_INCHIKEY>
GHMRUNOHAHJNNA-UHFFFAOYSA-N

> <PUBCHEM_XLOGP3_AA>
3.6

> <PUBCHEM_EXACT_MASS>
369.01129

> <PUBCHEM_MOLECULAR_FORMULA>
C17H12BrN3O2

> <PUBCHEM_MOLECULAR_WEIGHT>
370.2

> <PUBCHEM_SMILES>
COC1=C(C=C(C(=C1)C=C(C#N)C2=NC3=CC=CC=C3N2)Br)O

> <PUBCHEM_OPENEYE_CAN_SMILES>
COC1=C(C=C(C(=C1)C=C(C#N)C2=NC3=CC=CC=C3N2)Br)O

> <PUBCHEM_OPENEYE_ISO_SMILES>
COC1=C(C=C(C(=C1)C=C(C#N)C2=NC3=CC=CC=C3N2)Br)O

> <PUBCHEM_CACTVS_TPSA>
81.9

> <PUBCHEM_MONOISOTOPIC_WEIGHT>
369.01129

> <PUBCHEM_TOTAL_CHARGE>
0

> <PUBCHEM_HEAVY_ATOM_COUNT>
23

> <PUBCHEM_ATOM_DEF_STEREO_COUNT>
0

> <PUBCHEM_ATOM_UDEF_STEREO_COUNT>
0

> <PUBCHEM_BOND_DEF_STEREO_COUNT>
0

> <PUBCHEM_BOND_UDEF_STEREO_COUNT>
1

> <PUBCHEM_ISOTOPIC_ATOM_COUNT>
0

> <PUBCHEM_COMPONENT_COUNT>
1

> <PUBCHEM_CACTVS_TAUTO_COUNT>
-1

> <PUBCHEM_COORDINATE_TYPE>
1
5
255

> <PUBCHEM_BONDANNOTATIONS>
10  12  1
11  15  8
11  16  8
13  18  8
14  19  8
15  17  8
16  21  8
17  20  8
18  19  8
20  21  8
4  7  8
4  9  8
5  8  8
5  9  8
7  13  8
7  8  8
8  14  8

$$$$
