49830672
  -OEChem-03202502472D

 46 49  0     0  0  0  0  0  0999 V2000
    2.0000   -2.0530    0.0000 F   0  0  0  0  0  0  0  0  0  0  0  0
    8.0622    4.4470    0.0000 F   0  0  0  0  0  0  0  0  0  0  0  0
    5.4641    0.9470    0.0000 O   0  0  0  0  0  0  0  0  0  0  0  0
    5.5443   -4.8577    0.0000 N   0  0  0  0  0  0  0  0  0  0  0  0
    6.1279   -4.0530    0.0000 N   0  0  0  0  0  0  0  0  0  0  0  0
    3.7320    0.9470    0.0000 N   0  0  0  0  0  0  0  0  0  0  0  0
    5.8550   -2.2977    0.0000 N   0  0  0  0  0  0  0  0  0  0  0  0
    4.5981    2.4470    0.0000 N   0  0  0  0  0  0  0  0  0  0  0  0
    4.5981   -3.5530    0.0000 C   0  0  0  0  0  0  0  0  0  0  0  0
    3.7320   -3.0530    0.0000 C   0  0  0  0  0  0  0  0  0  0  0  0
    4.5981   -4.5530    0.0000 C   0  0  0  0  0  0  0  0  0  0  0  0
    3.7320   -2.0530    0.0000 C   0  0  0  0  0  0  0  0  0  0  0  0
    5.5443   -3.2482    0.0000 C   0  0  0  0  0  0  0  0  0  0  0  0
    2.8660   -3.5530    0.0000 C   0  0  0  0  0  0  0  0  0  0  0  0
    3.7320   -5.0530    0.0000 C   0  0  0  0  0  0  0  0  0  0  0  0
    2.8660   -1.5530    0.0000 C   0  0  0  0  0  0  0  0  0  0  0  0
    4.5981   -1.5530    0.0000 C   0  0  0  0  0  0  0  0  0  0  0  0
    2.8660   -4.5530    0.0000 C   0  0  0  0  0  0  0  0  0  0  0  0
    3.7320   -0.0530    0.0000 C   0  0  0  0  0  0  0  0  0  0  0  0
    2.8660   -0.5530    0.0000 C   0  0  0  0  0  0  0  0  0  0  0  0
    4.5981   -0.5530    0.0000 C   0  0  0  0  0  0  0  0  0  0  0  0
    5.4641    2.9470    0.0000 C   0  0  0  0  0  0  0  0  0  0  0  0
    4.5981    1.4470    0.0000 C   0  0  0  0  0  0  0  0  0  0  0  0
    6.3301    4.4470    0.0000 C   0  0  0  0  0  0  0  0  0  0  0  0
    5.4641    3.9470    0.0000 C   0  0  0  0  0  0  0  0  0  0  0  0
    6.3301    2.4470    0.0000 C   0  0  0  0  0  0  0  0  0  0  0  0
    7.1962    3.9470    0.0000 C   0  0  0  0  0  0  0  0  0  0  0  0
    7.1962    2.9470    0.0000 C   0  0  0  0  0  0  0  0  0  0  0  0
    6.3301    5.4470    0.0000 C   0  0  0  0  0  0  0  0  0  0  0  0
    2.3291   -3.2430    0.0000 H   0  0  0  0  0  0  0  0  0  0  0  0
    3.7320   -5.6730    0.0000 H   0  0  0  0  0  0  0  0  0  0  0  0
    5.1350   -1.8630    0.0000 H   0  0  0  0  0  0  0  0  0  0  0  0
    2.3291   -4.8630    0.0000 H   0  0  0  0  0  0  0  0  0  0  0  0
    5.7369   -5.4470    0.0000 H   0  0  0  0  0  0  0  0  0  0  0  0
    2.3291   -0.2430    0.0000 H   0  0  0  0  0  0  0  0  0  0  0  0
    5.1350   -0.2430    0.0000 H   0  0  0  0  0  0  0  0  0  0  0  0
    3.1951    1.2570    0.0000 H   0  0  0  0  0  0  0  0  0  0  0  0
    6.4616   -2.1699    0.0000 H   0  0  0  0  0  0  0  0  0  0  0  0
    5.4409   -1.8362    0.0000 H   0  0  0  0  0  0  0  0  0  0  0  0
    4.9272    4.2570    0.0000 H   0  0  0  0  0  0  0  0  0  0  0  0
    4.0611    2.7570    0.0000 H   0  0  0  0  0  0  0  0  0  0  0  0
    6.3301    1.8270    0.0000 H   0  0  0  0  0  0  0  0  0  0  0  0
    7.7331    2.6370    0.0000 H   0  0  0  0  0  0  0  0  0  0  0  0
    6.9501    5.4470    0.0000 H   0  0  0  0  0  0  0  0  0  0  0  0
    6.3301    6.0670    0.0000 H   0  0  0  0  0  0  0  0  0  0  0  0
    5.7101    5.4470    0.0000 H   0  0  0  0  0  0  0  0  0  0  0  0
  1 16  1  0  0  0  0
  2 27  1  0  0  0  0
  3 23  2  0  0  0  0
  4  5  1  0  0  0  0
  4 11  1  0  0  0  0
  4 34  1  0  0  0  0
  5 13  2  0  0  0  0
  6 19  1  0  0  0  0
  6 23  1  0  0  0  0
  6 37  1  0  0  0  0
  7 13  1  0  0  0  0
  7 38  1  0  0  0  0
  7 39  1  0  0  0  0
  8 22  1  0  0  0  0
  8 23  1  0  0  0  0
  8 41  1  0  0  0  0
  9 10  2  0  0  0  0
  9 11  1  0  0  0  0
  9 13  1  0  0  0  0
 10 12  1  0  0  0  0
 10 14  1  0  0  0  0
 11 15  2  0  0  0  0
 12 16  2  0  0  0  0
 12 17  1  0  0  0  0
 14 18  2  0  0  0  0
 14 30  1  0  0  0  0
 15 18  1  0  0  0  0
 15 31  1  0  0  0  0
 16 20  1  0  0  0  0
 17 21  2  0  0  0  0
 17 32  1  0  0  0  0
 18 33  1  0  0  0  0
 19 20  2  0  0  0  0
 19 21  1  0  0  0  0
 20 35  1  0  0  0  0
 21 36  1  0  0  0  0
 22 25  2  0  0  0  0
 22 26  1  0  0  0  0
 24 25  1  0  0  0  0
 24 27  2  0  0  0  0
 24 29  1  0  0  0  0
 25 40  1  0  0  0  0
 26 28  2  0  0  0  0
 26 42  1  0  0  0  0
 27 28  1  0  0  0  0
 28 43  1  0  0  0  0
 29 44  1  0  0  0  0
 29 45  1  0  0  0  0
 29 46  1  0  0  0  0
M  END
> <PUBCHEM_COMPOUND_CID>
49830672

> <PUBCHEM_COMPOUND_CANONICALIZED>
1

> <PUBCHEM_CACTVS_COMPLEXITY>
581

> <PUBCHEM_CACTVS_HBOND_ACCEPTOR>
5

> <PUBCHEM_CACTVS_HBOND_DONOR>
4

> <PUBCHEM_CACTVS_ROTATABLE_BOND>
3

> <PUBCHEM_CACTVS_SUBSKEYS>
AAADceB7oYAAAAAAAAAAAAAAAAAAAWAAAAAwYMAAAAAAAFgB9AAAHwAYAAAADAiBHggz8PLjAACqAyZicACSBAIhAgAcuSAwZJiIIKLA0dGEpAh4nAJIyCcQgMAOiAAAQAASAAAQAACAACQAAAAAAAAAAA==

> <PUBCHEM_IUPAC_OPENEYE_NAME>
1-[4-(3-amino-1H-indazol-4-yl)-3-fluoro-phenyl]-3-(4-fluoro-3-methyl-phenyl)urea

> <PUBCHEM_IUPAC_CAS_NAME>
1-[4-(3-amino-1H-indazol-4-yl)-3-fluorophenyl]-3-(4-fluoro-3-methylphenyl)urea

> <PUBCHEM_IUPAC_NAME_MARKUP>
1-[4-(3-amino-1<I>H</I>-indazol-4-yl)-3-fluorophenyl]-3-(4-fluoro-3-methylphenyl)urea

> <PUBCHEM_IUPAC_NAME>
1-[4-(3-amino-1H-indazol-4-yl)-3-fluorophenyl]-3-(4-fluoro-3-methylphenyl)urea

> <PUBCHEM_IUPAC_SYSTEMATIC_NAME>
1-[4-(3-azanyl-1H-indazol-4-yl)-3-fluoranyl-phenyl]-3-(4-fluoranyl-3-methyl-phenyl)urea

> <PUBCHEM_IUPAC_TRADITIONAL_NAME>
1-[4-(3-amino-1H-indazol-4-yl)-3-fluoro-phenyl]-3-(4-fluoro-3-methyl-phenyl)urea

> <PUBCHEM_IUPAC_INCHI>
InChI=1S/C21H17F2N5O/c1-11-9-12(6-8-16(11)22)25-21(29)26-13-5-7-14(17(23)10-13)15-3-2-4-18-19(15)20(24)28-27-18/h2-10H,1H3,(H3,24,27,28)(H2,25,26,29)

> <PUBCHEM_IUPAC_INCHIKEY>
SJMFZIGFOIPNPE-UHFFFAOYSA-N

> <PUBCHEM_XLOGP3_AA>
4

> <PUBCHEM_EXACT_MASS>
393.14011651

> <PUBCHEM_MOLECULAR_FORMULA>
C21H17F2N5O

> <PUBCHEM_MOLECULAR_WEIGHT>
393.4

> <PUBCHEM_SMILES>
CC1=C(C=CC(=C1)NC(=O)NC2=CC(=C(C=C2)C3=C4C(=CC=C3)NN=C4N)F)F

> <PUBCHEM_OPENEYE_CAN_SMILES>
CC1=C(C=CC(=C1)NC(=O)NC2=CC(=C(C=C2)C3=C4C(=CC=C3)NN=C4N)F)F

> <PUBCHEM_OPENEYE_ISO_SMILES>
CC1=C(C=CC(=C1)NC(=O)NC2=CC(=C(C=C2)C3=C4C(=CC=C3)NN=C4N)F)F

> <PUBCHEM_CACTVS_TPSA>
95.8

> <PUBCHEM_MONOISOTOPIC_WEIGHT>
393.14011651

> <PUBCHEM_TOTAL_CHARGE>
0

> <PUBCHEM_HEAVY_ATOM_COUNT>
29

> <PUBCHEM_ATOM_DEF_STEREO_COUNT>
0

> <PUBCHEM_ATOM_UDEF_STEREO_COUNT>
0

> <PUBCHEM_BOND_DEF_STEREO_COUNT>
0

> <PUBCHEM_BOND_UDEF_STEREO_COUNT>
0

> <PUBCHEM_ISOTOPIC_ATOM_COUNT>
0

> <PUBCHEM_COMPONENT_COUNT>
1

> <PUBCHEM_CACTVS_TAUTO_COUNT>
-1

> <PUBCHEM_COORDINATE_TYPE>
1
5
255

> <PUBCHEM_BONDANNOTATIONS>
10  14  8
11  15  8
12  16  8
12  17  8
14  18  8
15  18  8
16  20  8
17  21  8
19  20  8
19  21  8
22  25  8
22  26  8
24  25  8
24  27  8
26  28  8
27  28  8
4  11  8
4  5  8
5  13  8
9  10  8
9  11  8
9  13  8

$$$$
