44378540
  -OEChem-03202505082D

144145  0     1  0  0  0  0  0999 V2000
   10.2645   -4.2270    0.0000 S   0  0  0  0  0  0  0  0  0  0  0  0
    9.7331    0.2730    0.0000 O   0  0  0  0  0  0  0  0  0  0  0  0
   12.4651    2.7730    0.0000 O   0  0  0  0  0  0  0  0  0  0  0  0
    7.0010    2.7730    0.0000 O   0  0  0  0  0  0  0  0  0  0  0  0
   15.1972    0.2730    0.0000 O   0  0  0  0  0  0  0  0  0  0  0  0
   16.9292    3.2730    0.0000 O   0  0  0  0  0  0  0  0  0  0  0  0
    3.4030    1.7730    0.0000 O   0  0  0  0  0  0  0  0  0  0  0  0
    4.2690    0.2730    0.0000 O   0  0  0  0  0  0  0  0  0  0  0  0
   14.7286   -6.7270    0.0000 O   0  0  0  0  0  0  0  0  0  0  0  0
   11.9965   -4.2270    0.0000 O   0  0  0  0  0  0  0  0  0  0  0  0
   10.2645   -3.2270    0.0000 O   0  0  0  0  0  0  0  0  0  0  0  0
   11.2645   -4.2270    0.0000 O   0  0  0  0  0  0  0  0  0  0  0  0
   11.4651    1.2730    0.0000 N   0  0  0  0  0  0  0  0  0  0  0  0
    8.7331    1.7730    0.0000 N   0  0  0  0  0  0  0  0  0  0  0  0
   14.1972    1.7730    0.0000 N   0  0  0  0  0  0  0  0  0  0  0  0
    6.0010    1.2730    0.0000 N   0  0  0  0  0  0  0  0  0  0  0  0
   16.9292    1.2730    0.0000 N   0  0  0  0  0  0  0  0  0  0  0  0
    8.8671    4.7730    0.0000 N   0  0  0  0  0  0  0  0  0  0  0  0
    5.2690   -0.2270    0.0000 N   0  0  0  0  0  0  0  0  0  0  0  0
   15.6972   -1.0930    0.0000 N   0  0  0  0  0  0  0  0  0  0  0  0
   12.9965   -5.7270    0.0000 N   0  0  0  0  0  0  0  0  0  0  0  0
   10.2645   -5.2270    0.0000 N   0  0  0  0  0  0  0  0  0  0  0  0
    3.4030    4.7730    0.0000 N   0  0  0  0  0  0  0  0  0  0  0  0
    8.0010    6.2730    0.0000 N   0  0  0  0  0  0  0  0  0  0  0  0
    9.7331    6.2730    0.0000 N   0  0  0  0  0  0  0  0  0  0  0  0
    4.4030   -1.7270    0.0000 N   0  0  0  0  0  0  0  0  0  0  0  0
    6.1350   -1.7270    0.0000 N   0  0  0  0  0  0  0  0  0  0  0  0
   17.1972   -1.9590    0.0000 N   0  0  0  0  0  0  0  0  0  0  0  0
   15.6973   -2.8250    0.0000 N   0  0  0  0  0  0  0  0  0  0  0  0
    2.5369    6.2730    0.0000 N   0  0  0  0  0  0  0  0  0  0  0  0
    4.2690    6.2730    0.0000 N   0  0  0  0  0  0  0  0  0  0  0  0
    7.7437   -6.8930    0.0000 N   0  0  0  0  0  0  0  0  0  0  0  0
   10.5991    1.7730    0.0000 C   0  0  1  0  0  0  0  0  0  0  0  0
    7.8671    1.2730    0.0000 C   0  0  1  0  0  0  0  0  0  0  0  0
   10.5991    2.7730    0.0000 C   0  0  0  0  0  0  0  0  0  0  0  0
   13.3312    1.2730    0.0000 C   0  0  1  0  0  0  0  0  0  0  0  0
    7.8671    0.2730    0.0000 C   0  0  0  0  0  0  0  0  0  0  0  0
    9.7331    1.2730    0.0000 C   0  0  0  0  0  0  0  0  0  0  0  0
   13.3312    0.2730    0.0000 C   0  0  0  0  0  0  0  0  0  0  0  0
    9.7331    3.2730    0.0000 C   0  0  0  0  0  0  0  0  0  0  0  0
   12.4651    1.7730    0.0000 C   0  0  0  0  0  0  0  0  0  0  0  0
    7.0010   -0.2270    0.0000 C   0  0  0  0  0  0  0  0  0  0  0  0
    7.0010    1.7730    0.0000 C   0  0  0  0  0  0  0  0  0  0  0  0
   14.1972   -0.2270    0.0000 C   0  0  0  0  0  0  0  0  0  0  0  0
    5.1350    1.7730    0.0000 C   0  0  1  0  0  0  0  0  0  0  0  0
    9.7331    4.2730    0.0000 C   0  0  0  0  0  0  0  0  0  0  0  0
    5.1350    2.7730    0.0000 C   0  0  0  0  0  0  0  0  0  0  0  0
   16.0632    1.7730    0.0000 C   0  0  2  0  0  0  0  0  0  0  0  0
   15.1972    1.2730    0.0000 C   0  0  0  0  0  0  0  0  0  0  0  0
    6.1350    0.2730    0.0000 C   0  0  0  0  0  0  0  0  0  0  0  0
   14.6973   -1.0930    0.0000 C   0  0  0  0  0  0  0  0  0  0  0  0
    4.2690    3.2730    0.0000 C   0  0  0  0  0  0  0  0  0  0  0  0
   16.0632    2.7730    0.0000 C   0  0  0  0  0  0  0  0  0  0  0  0
    4.2690    1.2730    0.0000 C   0  0  0  0  0  0  0  0  0  0  0  0
    4.2690    4.2730    0.0000 C   0  0  0  0  0  0  0  0  0  0  0  0
   13.8626   -5.2270    0.0000 C   0  0  2  0  0  0  0  0  0  0  0  0
   14.7286   -5.7270    0.0000 C   0  0  0  0  0  0  0  0  0  0  0  0
   11.1305   -5.7270    0.0000 C   0  0  2  0  0  0  0  0  0  0  0  0
   13.8626   -4.2270    0.0000 C   0  0  0  0  0  0  0  0  0  0  0  0
   11.9965   -5.2270    0.0000 C   0  0  0  0  0  0  0  0  0  0  0  0
    8.8671    5.7730    0.0000 C   0  0  0  0  0  0  0  0  0  0  0  0
    5.2690   -1.2270    0.0000 C   0  0  0  0  0  0  0  0  0  0  0  0
   16.1972   -1.9590    0.0000 C   0  0  0  0  0  0  0  0  0  0  0  0
   11.1305   -6.7270    0.0000 C   0  0  0  0  0  0  0  0  0  0  0  0
    9.2645   -4.2270    0.0000 C   0  0  0  0  0  0  0  0  0  0  0  0
    8.7645   -5.0930    0.0000 C   0  0  0  0  0  0  0  0  0  0  0  0
    3.4030    5.7730    0.0000 C   0  0  0  0  0  0  0  0  0  0  0  0
    7.7645   -5.0930    0.0000 C   0  0  0  0  0  0  0  0  0  0  0  0
    8.7645   -3.3610    0.0000 C   0  0  0  0  0  0  0  0  0  0  0  0
    7.2645   -4.2270    0.0000 C   0  0  0  0  0  0  0  0  0  0  0  0
    7.7645   -3.3610    0.0000 C   0  0  0  0  0  0  0  0  0  0  0  0
    9.2992   -5.9870    0.0000 C   0  0  0  0  0  0  0  0  0  0  0  0
    7.2298   -5.9870    0.0000 C   0  0  0  0  0  0  0  0  0  0  0  0
    8.7853   -6.8930    0.0000 C   0  0  0  0  0  0  0  0  0  0  0  0
   11.1360    2.0830    0.0000 H   0  0  0  0  0  0  0  0  0  0  0  0
    8.4040    0.9630    0.0000 H   0  0  0  0  0  0  0  0  0  0  0  0
   11.2097    2.6654    0.0000 H   0  0  0  0  0  0  0  0  0  0  0  0
   10.8112    3.3556    0.0000 H   0  0  0  0  0  0  0  0  0  0  0  0
   13.8681    0.9630    0.0000 H   0  0  0  0  0  0  0  0  0  0  0  0
    8.0791   -0.3096    0.0000 H   0  0  0  0  0  0  0  0  0  0  0  0
    8.4776    0.3807    0.0000 H   0  0  0  0  0  0  0  0  0  0  0  0
   12.7206    0.3807    0.0000 H   0  0  0  0  0  0  0  0  0  0  0  0
   13.1191   -0.3096    0.0000 H   0  0  0  0  0  0  0  0  0  0  0  0
   12.0021    0.9630    0.0000 H   0  0  0  0  0  0  0  0  0  0  0  0
    9.2700    2.0830    0.0000 H   0  0  0  0  0  0  0  0  0  0  0  0
    9.1225    3.3807    0.0000 H   0  0  0  0  0  0  0  0  0  0  0  0
    9.5210    2.6904    0.0000 H   0  0  0  0  0  0  0  0  0  0  0  0
    6.6025   -0.7019    0.0000 H   0  0  0  0  0  0  0  0  0  0  0  0
    7.3996   -0.7019    0.0000 H   0  0  0  0  0  0  0  0  0  0  0  0
   14.8078   -0.1193    0.0000 H   0  0  0  0  0  0  0  0  0  0  0  0
   13.7588   -0.6654    0.0000 H   0  0  0  0  0  0  0  0  0  0  0  0
   14.7341    2.0830    0.0000 H   0  0  0  0  0  0  0  0  0  0  0  0
    5.6720    2.0830    0.0000 H   0  0  0  0  0  0  0  0  0  0  0  0
    6.5380    0.9630    0.0000 H   0  0  0  0  0  0  0  0  0  0  0  0
   10.3437    4.1654    0.0000 H   0  0  0  0  0  0  0  0  0  0  0  0
    9.9451    4.8556    0.0000 H   0  0  0  0  0  0  0  0  0  0  0  0
    5.7456    2.6654    0.0000 H   0  0  0  0  0  0  0  0  0  0  0  0
    5.3471    3.3556    0.0000 H   0  0  0  0  0  0  0  0  0  0  0  0
   16.6001    2.0830    0.0000 H   0  0  0  0  0  0  0  0  0  0  0  0
    6.5335    0.7480    0.0000 H   0  0  0  0  0  0  0  0  0  0  0  0
    5.7365    0.7480    0.0000 H   0  0  0  0  0  0  0  0  0  0  0  0
   14.1147   -1.3050    0.0000 H   0  0  0  0  0  0  0  0  0  0  0  0
   14.8049   -1.7035    0.0000 H   0  0  0  0  0  0  0  0  0  0  0  0
    3.6584    3.3807    0.0000 H   0  0  0  0  0  0  0  0  0  0  0  0
    4.0569    2.6904    0.0000 H   0  0  0  0  0  0  0  0  0  0  0  0
   15.8512    3.3556    0.0000 H   0  0  0  0  0  0  0  0  0  0  0  0
   15.4526    2.6654    0.0000 H   0  0  0  0  0  0  0  0  0  0  0  0
   17.4662    0.9630    0.0000 H   0  0  0  0  0  0  0  0  0  0  0  0
    4.8796    4.1654    0.0000 H   0  0  0  0  0  0  0  0  0  0  0  0
    4.4810    4.8556    0.0000 H   0  0  0  0  0  0  0  0  0  0  0  0
   13.3256   -4.9170    0.0000 H   0  0  0  0  0  0  0  0  0  0  0  0
   13.5335   -6.0370    0.0000 H   0  0  0  0  0  0  0  0  0  0  0  0
   10.5936   -6.0370    0.0000 H   0  0  0  0  0  0  0  0  0  0  0  0
   14.4826   -4.2270    0.0000 H   0  0  0  0  0  0  0  0  0  0  0  0
   13.8626   -3.6070    0.0000 H   0  0  0  0  0  0  0  0  0  0  0  0
   13.2426   -4.2270    0.0000 H   0  0  0  0  0  0  0  0  0  0  0  0
   10.8014   -5.5370    0.0000 H   0  0  0  0  0  0  0  0  0  0  0  0
   16.9292    3.8930    0.0000 H   0  0  0  0  0  0  0  0  0  0  0  0
    2.8660    1.4630    0.0000 H   0  0  0  0  0  0  0  0  0  0  0  0
   10.5105   -6.7270    0.0000 H   0  0  0  0  0  0  0  0  0  0  0  0
   11.1305   -7.3470    0.0000 H   0  0  0  0  0  0  0  0  0  0  0  0
   11.7505   -6.7270    0.0000 H   0  0  0  0  0  0  0  0  0  0  0  0
    8.0010    6.8930    0.0000 H   0  0  0  0  0  0  0  0  0  0  0  0
    7.4641    5.9630    0.0000 H   0  0  0  0  0  0  0  0  0  0  0  0
    9.7331    6.8930    0.0000 H   0  0  0  0  0  0  0  0  0  0  0  0
   10.2700    5.9630    0.0000 H   0  0  0  0  0  0  0  0  0  0  0  0
    9.0745   -2.8240    0.0000 H   0  0  0  0  0  0  0  0  0  0  0  0
    3.8660   -1.4170    0.0000 H   0  0  0  0  0  0  0  0  0  0  0  0
    4.4030   -2.3470    0.0000 H   0  0  0  0  0  0  0  0  0  0  0  0
    6.6720   -1.4170    0.0000 H   0  0  0  0  0  0  0  0  0  0  0  0
    6.1350   -2.3470    0.0000 H   0  0  0  0  0  0  0  0  0  0  0  0
   17.5072   -1.4221    0.0000 H   0  0  0  0  0  0  0  0  0  0  0  0
   17.5072   -2.4960    0.0000 H   0  0  0  0  0  0  0  0  0  0  0  0
   15.0773   -2.8250    0.0000 H   0  0  0  0  0  0  0  0  0  0  0  0
   16.0073   -3.3619    0.0000 H   0  0  0  0  0  0  0  0  0  0  0  0
    6.6445   -4.2270    0.0000 H   0  0  0  0  0  0  0  0  0  0  0  0
    7.4545   -2.8240    0.0000 H   0  0  0  0  0  0  0  0  0  0  0  0
    9.9191   -5.9798    0.0000 H   0  0  0  0  0  0  0  0  0  0  0  0
    6.6099   -5.9798    0.0000 H   0  0  0  0  0  0  0  0  0  0  0  0
    2.5369    6.8930    0.0000 H   0  0  0  0  0  0  0  0  0  0  0  0
    2.0000    5.9630    0.0000 H   0  0  0  0  0  0  0  0  0  0  0  0
    4.2690    6.8930    0.0000 H   0  0  0  0  0  0  0  0  0  0  0  0
    4.8059    5.9630    0.0000 H   0  0  0  0  0  0  0  0  0  0  0  0
    9.0974   -7.4288    0.0000 H   0  0  0  0  0  0  0  0  0  0  0  0
  1 11  2  0  0  0  0
  1 12  2  0  0  0  0
  1 22  1  0  0  0  0
  1 65  1  0  0  0  0
  2 38  2  0  0  0  0
  3 41  2  0  0  0  0
  4 43  2  0  0  0  0
  5 49  2  0  0  0  0
  6 53  1  0  0  0  0
  6118  1  0  0  0  0
  7 54  1  0  0  0  0
  7119  1  0  0  0  0
  8 54  2  0  0  0  0
  9 57  2  0  0  0  0
 10 60  2  0  0  0  0
 33 13  1  6  0  0  0
 13 41  1  0  0  0  0
 13 84  1  0  0  0  0
 34 14  1  1  0  0  0
 14 38  1  0  0  0  0
 14 85  1  0  0  0  0
 36 15  1  1  0  0  0
 15 49  1  0  0  0  0
 15 92  1  0  0  0  0
 16 43  1  0  0  0  0
 45 16  1  6  0  0  0
 16 94  1  0  0  0  0
 48 17  1  6  0  0  0
 17 57  1  0  0  0  0
 17108  1  0  0  0  0
 18 46  1  0  0  0  0
 18 61  2  0  0  0  0
 19 50  1  0  0  0  0
 19 62  2  0  0  0  0
 20 51  1  0  0  0  0
 20 63  2  0  0  0  0
 56 21  1  1  0  0  0
 21 60  1  0  0  0  0
 21112  1  0  0  0  0
 58 22  1  6  0  0  0
 22117  1  0  0  0  0
 23 55  1  0  0  0  0
 23 67  2  0  0  0  0
 24 61  1  0  0  0  0
 24123  1  0  0  0  0
 24124  1  0  0  0  0
 25 61  1  0  0  0  0
 25125  1  0  0  0  0
 25126  1  0  0  0  0
 26 62  1  0  0  0  0
 26128  1  0  0  0  0
 26129  1  0  0  0  0
 27 62  1  0  0  0  0
 27130  1  0  0  0  0
 27131  1  0  0  0  0
 28 63  1  0  0  0  0
 28132  1  0  0  0  0
 28133  1  0  0  0  0
 29 63  1  0  0  0  0
 29134  1  0  0  0  0
 29135  1  0  0  0  0
 30 67  1  0  0  0  0
 30140  1  0  0  0  0
 30141  1  0  0  0  0
 31 67  1  0  0  0  0
 31142  1  0  0  0  0
 31143  1  0  0  0  0
 32 73  2  0  0  0  0
 32 74  1  0  0  0  0
 33 35  1  0  0  0  0
 33 38  1  0  0  0  0
 33 75  1  0  0  0  0
 34 37  1  0  0  0  0
 34 43  1  0  0  0  0
 34 76  1  0  0  0  0
 35 40  1  0  0  0  0
 35 77  1  0  0  0  0
 35 78  1  0  0  0  0
 36 39  1  0  0  0  0
 36 41  1  0  0  0  0
 36 79  1  0  0  0  0
 37 42  1  0  0  0  0
 37 80  1  0  0  0  0
 37 81  1  0  0  0  0
 39 44  1  0  0  0  0
 39 82  1  0  0  0  0
 39 83  1  0  0  0  0
 40 46  1  0  0  0  0
 40 86  1  0  0  0  0
 40 87  1  0  0  0  0
 42 50  1  0  0  0  0
 42 88  1  0  0  0  0
 42 89  1  0  0  0  0
 44 51  1  0  0  0  0
 44 90  1  0  0  0  0
 44 91  1  0  0  0  0
 45 47  1  0  0  0  0
 45 54  1  0  0  0  0
 45 93  1  0  0  0  0
 46 95  1  0  0  0  0
 46 96  1  0  0  0  0
 47 52  1  0  0  0  0
 47 97  1  0  0  0  0
 47 98  1  0  0  0  0
 48 49  1  0  0  0  0
 48 53  1  0  0  0  0
 48 99  1  0  0  0  0
 50100  1  0  0  0  0
 50101  1  0  0  0  0
 51102  1  0  0  0  0
 51103  1  0  0  0  0
 52 55  1  0  0  0  0
 52104  1  0  0  0  0
 52105  1  0  0  0  0
 53106  1  0  0  0  0
 53107  1  0  0  0  0
 55109  1  0  0  0  0
 55110  1  0  0  0  0
 56 57  1  0  0  0  0
 56 59  1  0  0  0  0
 56111  1  0  0  0  0
 58 60  1  0  0  0  0
 58 64  1  0  0  0  0
 58113  1  0  0  0  0
 59114  1  0  0  0  0
 59115  1  0  0  0  0
 59116  1  0  0  0  0
 64120  1  0  0  0  0
 64121  1  0  0  0  0
 64122  1  0  0  0  0
 65 66  1  0  0  0  0
 65 69  2  0  0  0  0
 66 68  2  0  0  0  0
 66 72  1  0  0  0  0
 68 70  1  0  0  0  0
 68 73  1  0  0  0  0
 69 71  1  0  0  0  0
 69127  1  0  0  0  0
 70 71  2  0  0  0  0
 70136  1  0  0  0  0
 71137  1  0  0  0  0
 72 74  2  0  0  0  0
 72138  1  0  0  0  0
 73139  1  0  0  0  0
 74144  1  0  0  0  0
M  END
> <PUBCHEM_COMPOUND_CID>
44378540

> <PUBCHEM_COMPOUND_CANONICALIZED>
1

> <PUBCHEM_CACTVS_COMPLEXITY>
2110

> <PUBCHEM_CACTVS_HBOND_ACCEPTOR>
17

> <PUBCHEM_CACTVS_HBOND_DONOR>
17

> <PUBCHEM_CACTVS_ROTATABLE_BOND>
33

> <PUBCHEM_CACTVS_SUBSKEYS>
AAADcfB//ABAAAAAAAAAAAAAAAAAAAAAAAA8QAAAAAAAAACx8AAAHgQQSAAADCjh2gY/idLIEgKoAjH3fHDCgDExAiAI2Lm4ZJgKcPbAkbGUYAhmtgDYyAeYkYAOgAAAgAAUAAAAAAEAACgAAAAAAAAAAA==

> <PUBCHEM_IUPAC_OPENEYE_NAME>
(2S)-5-guanidino-2-[[(2S)-5-guanidino-2-[[(2S)-5-guanidino-2-[[(2S)-5-guanidino-2-[[(2S)-3-hydroxy-2-[[(2S)-2-[[(2S)-2-(5-isoquinolylsulfonylamino)propanoyl]amino]propanoyl]amino]propanoyl]amino]pentanoyl]amino]pentanoyl]amino]pentanoyl]amino]pentanoic acid

> <PUBCHEM_IUPAC_CAS_NAME>
(2S)-5-(diaminomethylideneamino)-2-[[(2S)-5-(diaminomethylideneamino)-2-[[(2S)-5-(diaminomethylideneamino)-2-[[(2S)-5-(diaminomethylideneamino)-2-[[(2S)-3-hydroxy-2-[[(2S)-2-[[(2S)-2-(5-isoquinolinylsulfonylamino)-1-oxopropyl]amino]-1-oxopropyl]amino]-1-oxopropyl]amino]-1-oxopentyl]amino]-1-oxopentyl]amino]-1-oxopentyl]amino]pentanoic acid

> <PUBCHEM_IUPAC_NAME_MARKUP>
(2<I>S</I>)-5-(diaminomethylideneamino)-2-[[(2<I>S</I>)-5-(diaminomethylideneamino)-2-[[(2<I>S</I>)-5-(diaminomethylideneamino)-2-[[(2<I>S</I>)-5-(diaminomethylideneamino)-2-[[(2<I>S</I>)-3-hydroxy-2-[[(2<I>S</I>)-2-[[(2<I>S</I>)-2-(isoquinolin-5-ylsulfonylamino)propanoyl]amino]propanoyl]amino]propanoyl]amino]pentanoyl]amino]pentanoyl]amino]pentanoyl]amino]pentanoic acid

> <PUBCHEM_IUPAC_NAME>
(2S)-5-(diaminomethylideneamino)-2-[[(2S)-5-(diaminomethylideneamino)-2-[[(2S)-5-(diaminomethylideneamino)-2-[[(2S)-5-(diaminomethylideneamino)-2-[[(2S)-3-hydroxy-2-[[(2S)-2-[[(2S)-2-(isoquinolin-5-ylsulfonylamino)propanoyl]amino]propanoyl]amino]propanoyl]amino]pentanoyl]amino]pentanoyl]amino]pentanoyl]amino]pentanoic acid

> <PUBCHEM_IUPAC_SYSTEMATIC_NAME>
(2S)-5-[bis(azanyl)methylideneamino]-2-[[(2S)-5-[bis(azanyl)methylideneamino]-2-[[(2S)-5-[bis(azanyl)methylideneamino]-2-[[(2S)-5-[bis(azanyl)methylideneamino]-2-[[(2S)-2-[[(2S)-2-[[(2S)-2-(isoquinolin-5-ylsulfonylamino)propanoyl]amino]propanoyl]amino]-3-oxidanyl-propanoyl]amino]pentanoyl]amino]pentanoyl]amino]pentanoyl]amino]pentanoic acid

> <PUBCHEM_IUPAC_TRADITIONAL_NAME>
(2S)-5-guanidino-2-[[(2S)-5-guanidino-2-[[(2S)-5-guanidino-2-[[(2S)-5-guanidino-2-[[(2S)-3-hydroxy-2-[[(2S)-2-[[(2S)-2-(5-isoquinolylsulfonylamino)propanoyl]amino]propanoyl]amino]propanoyl]amino]pentanoyl]amino]pentanoyl]amino]pentanoyl]amino]valeric acid

> <PUBCHEM_IUPAC_INCHI>
InChI=1S/C42H70N20O11S/c1-22(56-33(65)23(2)62-74(72,73)31-13-3-8-24-20-51-19-14-25(24)31)32(64)61-30(21-63)37(69)59-27(10-5-16-53-40(45)46)35(67)57-26(9-4-15-52-39(43)44)34(66)58-28(11-6-17-54-41(47)48)36(68)60-29(38(70)71)12-7-18-55-42(49)50/h3,8,13-14,19-20,22-23,26-30,62-63H,4-7,9-12,15-18,21H2,1-2H3,(H,56,65)(H,57,67)(H,58,66)(H,59,69)(H,60,68)(H,61,64)(H,70,71)(H4,43,44,52)(H4,45,46,53)(H4,47,48,54)(H4,49,50,55)/t22-,23-,26-,27-,28-,29-,30-/m0/s1

> <PUBCHEM_IUPAC_INCHIKEY>
LPUJFWYDQCVFDP-FOIAGIETSA-N

> <PUBCHEM_XLOGP3_AA>
-6.3

> <PUBCHEM_EXACT_MASS>
1062.52536430

> <PUBCHEM_MOLECULAR_FORMULA>
C42H70N20O11S

> <PUBCHEM_MOLECULAR_WEIGHT>
1063.2

> <PUBCHEM_SMILES>
C[C@@H](C(=O)N[C@@H](CO)C(=O)N[C@@H](CCCN=C(N)N)C(=O)N[C@@H](CCCN=C(N)N)C(=O)N[C@@H](CCCN=C(N)N)C(=O)N[C@@H](CCCN=C(N)N)C(=O)O)NC(=O)[C@H](C)NS(=O)(=O)C1=CC=CC2=C1C=CN=C2

> <PUBCHEM_OPENEYE_CAN_SMILES>
CC(C(=O)NC(CO)C(=O)NC(CCCN=C(N)N)C(=O)NC(CCCN=C(N)N)C(=O)NC(CCCN=C(N)N)C(=O)NC(CCCN=C(N)N)C(=O)O)NC(=O)C(C)NS(=O)(=O)C1=CC=CC2=C1C=CN=C2

> <PUBCHEM_OPENEYE_ISO_SMILES>
C[C@@H](C(=O)N[C@@H](CO)C(=O)N[C@@H](CCCN=C(N)N)C(=O)N[C@@H](CCCN=C(N)N)C(=O)N[C@@H](CCCN=C(N)N)C(=O)N[C@@H](CCCN=C(N)N)C(=O)O)NC(=O)[C@H](C)NS(=O)(=O)C1=CC=CC2=C1C=CN=C2

> <PUBCHEM_CACTVS_TPSA>
557

> <PUBCHEM_MONOISOTOPIC_WEIGHT>
1062.52536430

> <PUBCHEM_TOTAL_CHARGE>
0

> <PUBCHEM_HEAVY_ATOM_COUNT>
74

> <PUBCHEM_ATOM_DEF_STEREO_COUNT>
7

> <PUBCHEM_ATOM_UDEF_STEREO_COUNT>
0

> <PUBCHEM_BOND_DEF_STEREO_COUNT>
0

> <PUBCHEM_BOND_UDEF_STEREO_COUNT>
0

> <PUBCHEM_ISOTOPIC_ATOM_COUNT>
0

> <PUBCHEM_COMPONENT_COUNT>
1

> <PUBCHEM_CACTVS_TAUTO_COUNT>
-1

> <PUBCHEM_COORDINATE_TYPE>
1
5
255

> <PUBCHEM_BONDANNOTATIONS>
33  13  6
34  14  5
36  15  5
45  16  6
48  17  6
56  21  5
58  22  6
32  73  8
32  74  8
65  66  8
65  69  8
66  68  8
66  72  8
68  70  8
68  73  8
69  71  8
70  71  8
72  74  8

$$$$
