607775
  -OEChem-03202507212D

 25 27  0     0  0  0  0  0  0999 V2000
    7.3991   -1.7403    0.0000 O   0  0  0  0  0  0  0  0  0  0  0  0
    4.5274    1.1203    0.0000 N   0  0  0  0  0  0  0  0  0  0  0  0
    2.0000   -0.0039    0.0000 N   0  0  0  0  0  0  0  0  0  0  0  0
    5.0274   -0.4185    0.0000 C   0  0  0  0  0  0  0  0  0  0  0  0
    4.0274   -0.4185    0.0000 C   0  0  0  0  0  0  0  0  0  0  0  0
    5.3364    0.5325    0.0000 C   0  0  0  0  0  0  0  0  0  0  0  0
    3.7183    0.5325    0.0000 C   0  0  0  0  0  0  0  0  0  0  0  0
    5.7123   -1.2033    0.0000 C   0  0  0  0  0  0  0  0  0  0  0  0
    6.3518    0.7648    0.0000 C   0  0  0  0  0  0  0  0  0  0  0  0
    3.3424   -1.2033    0.0000 C   0  0  0  0  0  0  0  0  0  0  0  0
    6.7328   -0.9946    0.0000 C   0  0  0  0  0  0  0  0  0  0  0  0
    7.0547   -0.0039    0.0000 C   0  0  0  0  0  0  0  0  0  0  0  0
    2.7029    0.7648    0.0000 C   0  0  0  0  0  0  0  0  0  0  0  0
    2.3219   -0.9946    0.0000 C   0  0  0  0  0  0  0  0  0  0  0  0
    8.3780   -1.5362    0.0000 C   0  0  0  0  0  0  0  0  0  0  0  0
    4.5274    1.7403    0.0000 H   0  0  0  0  0  0  0  0  0  0  0  0
    5.5139   -1.7907    0.0000 H   0  0  0  0  0  0  0  0  0  0  0  0
    6.5365    1.3566    0.0000 H   0  0  0  0  0  0  0  0  0  0  0  0
    3.5408   -1.7907    0.0000 H   0  0  0  0  0  0  0  0  0  0  0  0
    7.6607    0.1273    0.0000 H   0  0  0  0  0  0  0  0  0  0  0  0
    2.5182    1.3566    0.0000 H   0  0  0  0  0  0  0  0  0  0  0  0
    1.9088   -1.4569    0.0000 H   0  0  0  0  0  0  0  0  0  0  0  0
    8.5046   -2.1431    0.0000 H   0  0  0  0  0  0  0  0  0  0  0  0
    8.9850   -1.4096    0.0000 H   0  0  0  0  0  0  0  0  0  0  0  0
    8.2515   -0.9292    0.0000 H   0  0  0  0  0  0  0  0  0  0  0  0
  1 11  1  0  0  0  0
  1 15  1  0  0  0  0
  2  6  1  0  0  0  0
  2  7  1  0  0  0  0
  2 16  1  0  0  0  0
  3 13  2  0  0  0  0
  3 14  1  0  0  0  0
  4  5  1  0  0  0  0
  4  6  2  0  0  0  0
  4  8  1  0  0  0  0
  5  7  2  0  0  0  0
  5 10  1  0  0  0  0
  6  9  1  0  0  0  0
  7 13  1  0  0  0  0
  8 11  2  0  0  0  0
  8 17  1  0  0  0  0
  9 12  2  0  0  0  0
  9 18  1  0  0  0  0
 10 14  2  0  0  0  0
 10 19  1  0  0  0  0
 11 12  1  0  0  0  0
 12 20  1  0  0  0  0
 13 21  1  0  0  0  0
 14 22  1  0  0  0  0
 15 23  1  0  0  0  0
 15 24  1  0  0  0  0
 15 25  1  0  0  0  0
M  END
> <PUBCHEM_COMPOUND_CID>
607775

> <PUBCHEM_COMPOUND_CANONICALIZED>
1

> <PUBCHEM_CACTVS_COMPLEXITY>
234

> <PUBCHEM_CACTVS_HBOND_ACCEPTOR>
2

> <PUBCHEM_CACTVS_HBOND_DONOR>
1

> <PUBCHEM_CACTVS_ROTATABLE_BOND>
1

> <PUBCHEM_CACTVS_SUBSKEYS>
AAADccBzIAAAAAAAAAAAAAAAAAAAAWAAAAA8QAAAAAAAAFgB/gAAHgAQAAAADAzBngY+xvLJlACgAzRnRACCiCQxMiAI2SA+fJgMZuLEsZuUMChk0BHI6Aew0PMOgEABAAACAAAAgAIAAAQAAAAAAAAAAA==

> <PUBCHEM_IUPAC_OPENEYE_NAME>
6-methoxy-9H-pyrido[3,4-b]indole

> <PUBCHEM_IUPAC_CAS_NAME>
6-methoxy-9H-pyrido[3,4-b]indole

> <PUBCHEM_IUPAC_NAME_MARKUP>
6-methoxy-9<I>H</I>-pyrido[3,4-b]indole

> <PUBCHEM_IUPAC_NAME>
6-methoxy-9H-pyrido[3,4-b]indole

> <PUBCHEM_IUPAC_SYSTEMATIC_NAME>
6-methoxy-9H-pyrido[3,4-b]indole

> <PUBCHEM_IUPAC_TRADITIONAL_NAME>
6-methoxy-9H-beta-carboline

> <PUBCHEM_IUPAC_INCHI>
InChI=1S/C12H10N2O/c1-15-8-2-3-11-10(6-8)9-4-5-13-7-12(9)14-11/h2-7,14H,1H3

> <PUBCHEM_IUPAC_INCHIKEY>
OIKFIPOMXWTXJJ-UHFFFAOYSA-N

> <PUBCHEM_XLOGP3>
3.1

> <PUBCHEM_EXACT_MASS>
198.079312947

> <PUBCHEM_MOLECULAR_FORMULA>
C12H10N2O

> <PUBCHEM_MOLECULAR_WEIGHT>
198.22

> <PUBCHEM_SMILES>
COC1=CC2=C(C=C1)NC3=C2C=CN=C3

> <PUBCHEM_OPENEYE_CAN_SMILES>
COC1=CC2=C(C=C1)NC3=C2C=CN=C3

> <PUBCHEM_OPENEYE_ISO_SMILES>
COC1=CC2=C(C=C1)NC3=C2C=CN=C3

> <PUBCHEM_CACTVS_TPSA>
37.9

> <PUBCHEM_MONOISOTOPIC_WEIGHT>
198.079312947

> <PUBCHEM_TOTAL_CHARGE>
0

> <PUBCHEM_HEAVY_ATOM_COUNT>
15

> <PUBCHEM_ATOM_DEF_STEREO_COUNT>
0

> <PUBCHEM_ATOM_UDEF_STEREO_COUNT>
0

> <PUBCHEM_BOND_DEF_STEREO_COUNT>
0

> <PUBCHEM_BOND_UDEF_STEREO_COUNT>
0

> <PUBCHEM_ISOTOPIC_ATOM_COUNT>
0

> <PUBCHEM_COMPONENT_COUNT>
1

> <PUBCHEM_CACTVS_TAUTO_COUNT>
-1

> <PUBCHEM_COORDINATE_TYPE>
1
5
255

> <PUBCHEM_BONDANNOTATIONS>
10  14  8
11  12  8
2  6  8
2  7  8
3  13  8
3  14  8
4  5  8
4  6  8
4  8  8
5  10  8
5  7  8
6  9  8
7  13  8
8  11  8
9  12  8

$$$$
