44580420
  -OEChem-03202506542D

 63 67  0     0  0  0  0  0  0999 V2000
    2.8660    7.1739    0.0000 O   0  0  0  0  0  0  0  0  0  0  0  0
    3.7320    0.6739    0.0000 O   0  0  0  0  0  0  0  0  0  0  0  0
    7.1391   -5.4139    0.0000 O   0  0  0  0  0  0  0  0  0  0  0  0
    2.8660    5.1739    0.0000 N   0  0  0  0  0  0  0  0  0  0  0  0
    4.5981    2.1739    0.0000 N   0  0  0  0  0  0  0  0  0  0  0  0
    5.5211   -5.4139    0.0000 N   0  0  0  0  0  0  0  0  0  0  0  0
    5.8301   -6.3649    0.0000 N   0  0  0  0  0  0  0  0  0  0  0  0
    2.0000    5.6739    0.0000 C   0  0  0  0  0  0  0  0  0  0  0  0
    3.7320    5.6739    0.0000 C   0  0  0  0  0  0  0  0  0  0  0  0
    2.0000    6.6739    0.0000 C   0  0  0  0  0  0  0  0  0  0  0  0
    3.7320    6.6739    0.0000 C   0  0  0  0  0  0  0  0  0  0  0  0
    2.8660    4.1739    0.0000 C   0  0  0  0  0  0  0  0  0  0  0  0
    3.7320    3.6739    0.0000 C   0  0  0  0  0  0  0  0  0  0  0  0
    2.0000    3.6739    0.0000 C   0  0  0  0  0  0  0  0  0  0  0  0
    3.7320    2.6739    0.0000 C   0  0  0  0  0  0  0  0  0  0  0  0
    6.3301   -0.8261    0.0000 C   0  0  0  0  0  0  0  0  0  0  0  0
    6.3301   -1.8261    0.0000 C   0  0  0  0  0  0  0  0  0  0  0  0
    2.0000    2.6739    0.0000 C   0  0  0  0  0  0  0  0  0  0  0  0
    7.1962   -0.3261    0.0000 C   0  0  0  0  0  0  0  0  0  0  0  0
    2.8660    2.1739    0.0000 C   0  0  0  0  0  0  0  0  0  0  0  0
    5.4641    0.6739    0.0000 C   0  0  0  0  0  0  0  0  0  0  0  0
    5.4641   -2.3261    0.0000 C   0  0  0  0  0  0  0  0  0  0  0  0
    5.4641   -0.3261    0.0000 C   0  0  0  0  0  0  0  0  0  0  0  0
    4.5981    1.1739    0.0000 C   0  0  0  0  0  0  0  0  0  0  0  0
    7.1962   -2.3261    0.0000 C   0  0  0  0  0  0  0  0  0  0  0  0
    7.1962    0.6739    0.0000 C   0  0  0  0  0  0  0  0  0  0  0  0
    6.3301    1.1739    0.0000 C   0  0  0  0  0  0  0  0  0  0  0  0
    5.4641   -3.3261    0.0000 C   0  0  0  0  0  0  0  0  0  0  0  0
    6.3301   -3.8261    0.0000 C   0  0  0  0  0  0  0  0  0  0  0  0
    7.1962   -3.3261    0.0000 C   0  0  0  0  0  0  0  0  0  0  0  0
    8.0622   -0.8261    0.0000 C   0  0  0  0  0  0  0  0  0  0  0  0
    4.5981   -1.8261    0.0000 C   0  0  0  0  0  0  0  0  0  0  0  0
    6.3301   -4.8261    0.0000 C   0  0  0  0  0  0  0  0  0  0  0  0
    6.8301   -6.3649    0.0000 C   0  0  0  0  0  0  0  0  0  0  0  0
    7.4179   -7.1739    0.0000 C   0  0  0  0  0  0  0  0  0  0  0  0
    1.3894    5.7816    0.0000 H   0  0  0  0  0  0  0  0  0  0  0  0
    1.7880    5.0913    0.0000 H   0  0  0  0  0  0  0  0  0  0  0  0
    3.9441    5.0913    0.0000 H   0  0  0  0  0  0  0  0  0  0  0  0
    4.3426    5.7816    0.0000 H   0  0  0  0  0  0  0  0  0  0  0  0
    1.7880    7.2565    0.0000 H   0  0  0  0  0  0  0  0  0  0  0  0
    1.3894    6.5663    0.0000 H   0  0  0  0  0  0  0  0  0  0  0  0
    4.3426    6.5663    0.0000 H   0  0  0  0  0  0  0  0  0  0  0  0
    3.9441    7.2565    0.0000 H   0  0  0  0  0  0  0  0  0  0  0  0
    4.2690    3.9839    0.0000 H   0  0  0  0  0  0  0  0  0  0  0  0
    1.4631    3.9839    0.0000 H   0  0  0  0  0  0  0  0  0  0  0  0
    1.4631    2.3639    0.0000 H   0  0  0  0  0  0  0  0  0  0  0  0
    2.8660    1.5539    0.0000 H   0  0  0  0  0  0  0  0  0  0  0  0
    4.9272   -0.6361    0.0000 H   0  0  0  0  0  0  0  0  0  0  0  0
    5.1350    2.4839    0.0000 H   0  0  0  0  0  0  0  0  0  0  0  0
    7.7331   -2.0161    0.0000 H   0  0  0  0  0  0  0  0  0  0  0  0
    7.7331    0.9839    0.0000 H   0  0  0  0  0  0  0  0  0  0  0  0
    6.3301    1.7939    0.0000 H   0  0  0  0  0  0  0  0  0  0  0  0
    4.9272   -3.6361    0.0000 H   0  0  0  0  0  0  0  0  0  0  0  0
    7.7331   -3.6361    0.0000 H   0  0  0  0  0  0  0  0  0  0  0  0
    7.7522   -1.3630    0.0000 H   0  0  0  0  0  0  0  0  0  0  0  0
    8.5991   -1.1361    0.0000 H   0  0  0  0  0  0  0  0  0  0  0  0
    8.3722   -0.2891    0.0000 H   0  0  0  0  0  0  0  0  0  0  0  0
    4.9081   -1.2891    0.0000 H   0  0  0  0  0  0  0  0  0  0  0  0
    4.0611   -1.5161    0.0000 H   0  0  0  0  0  0  0  0  0  0  0  0
    4.2881   -2.3630    0.0000 H   0  0  0  0  0  0  0  0  0  0  0  0
    6.9163   -7.5384    0.0000 H   0  0  0  0  0  0  0  0  0  0  0  0
    7.7823   -7.6755    0.0000 H   0  0  0  0  0  0  0  0  0  0  0  0
    7.9195   -6.8095    0.0000 H   0  0  0  0  0  0  0  0  0  0  0  0
  1 10  1  0  0  0  0
  1 11  1  0  0  0  0
  2 24  2  0  0  0  0
  3 33  1  0  0  0  0
  3 34  1  0  0  0  0
  4  8  1  0  0  0  0
  4  9  1  0  0  0  0
  4 12  1  0  0  0  0
  5 15  1  0  0  0  0
  5 24  1  0  0  0  0
  5 49  1  0  0  0  0
  6  7  1  0  0  0  0
  6 33  2  0  0  0  0
  7 34  2  0  0  0  0
  8 10  1  0  0  0  0
  8 36  1  0  0  0  0
  8 37  1  0  0  0  0
  9 11  1  0  0  0  0
  9 38  1  0  0  0  0
  9 39  1  0  0  0  0
 10 40  1  0  0  0  0
 10 41  1  0  0  0  0
 11 42  1  0  0  0  0
 11 43  1  0  0  0  0
 12 13  1  0  0  0  0
 12 14  2  0  0  0  0
 13 15  2  0  0  0  0
 13 44  1  0  0  0  0
 14 18  1  0  0  0  0
 14 45  1  0  0  0  0
 15 20  1  0  0  0  0
 16 17  1  0  0  0  0
 16 19  2  0  0  0  0
 16 23  1  0  0  0  0
 17 22  2  0  0  0  0
 17 25  1  0  0  0  0
 18 20  2  0  0  0  0
 18 46  1  0  0  0  0
 19 26  1  0  0  0  0
 19 31  1  0  0  0  0
 20 47  1  0  0  0  0
 21 23  2  0  0  0  0
 21 24  1  0  0  0  0
 21 27  1  0  0  0  0
 22 28  1  0  0  0  0
 22 32  1  0  0  0  0
 23 48  1  0  0  0  0
 25 30  2  0  0  0  0
 25 50  1  0  0  0  0
 26 27  2  0  0  0  0
 26 51  1  0  0  0  0
 27 52  1  0  0  0  0
 28 29  2  0  0  0  0
 28 53  1  0  0  0  0
 29 30  1  0  0  0  0
 29 33  1  0  0  0  0
 30 54  1  0  0  0  0
 31 55  1  0  0  0  0
 31 56  1  0  0  0  0
 31 57  1  0  0  0  0
 32 58  1  0  0  0  0
 32 59  1  0  0  0  0
 32 60  1  0  0  0  0
 34 35  1  0  0  0  0
 35 61  1  0  0  0  0
 35 62  1  0  0  0  0
 35 63  1  0  0  0  0
M  END
> <PUBCHEM_COMPOUND_CID>
44580420

> <PUBCHEM_COMPOUND_CANONICALIZED>
1

> <PUBCHEM_CACTVS_COMPLEXITY>
702

> <PUBCHEM_CACTVS_HBOND_ACCEPTOR>
6

> <PUBCHEM_CACTVS_HBOND_DONOR>
1

> <PUBCHEM_CACTVS_ROTATABLE_BOND>
5

> <PUBCHEM_CACTVS_SUBSKEYS>
AAADceB7sAAAAAAAAAAAAAAAAAAAAWAAAAA8YMEAAAAAAAAB1AAAHgAYAAAADAjhmgYywIPABECqAiVyUACSAAAtAgAaiCE4bNgKJrLA9dmPMQhk3AHY6YeYyPCOwAACAAQQAACAAAQACCAAAAAAAAAAAA==

> <PUBCHEM_IUPAC_OPENEYE_NAME>
4-methyl-3-[2-methyl-4-(5-methyl-1,3,4-oxadiazol-2-yl)phenyl]-N-(3-morpholinophenyl)benzamide

> <PUBCHEM_IUPAC_CAS_NAME>
4-methyl-3-[2-methyl-4-(5-methyl-1,3,4-oxadiazol-2-yl)phenyl]-N-[3-(4-morpholinyl)phenyl]benzamide

> <PUBCHEM_IUPAC_NAME_MARKUP>
4-methyl-3-[2-methyl-4-(5-methyl-1,3,4-oxadiazol-2-yl)phenyl]-<I>N</I>-(3-morpholin-4-ylphenyl)benzamide

> <PUBCHEM_IUPAC_NAME>
4-methyl-3-[2-methyl-4-(5-methyl-1,3,4-oxadiazol-2-yl)phenyl]-N-(3-morpholin-4-ylphenyl)benzamide

> <PUBCHEM_IUPAC_SYSTEMATIC_NAME>
4-methyl-3-[2-methyl-4-(5-methyl-1,3,4-oxadiazol-2-yl)phenyl]-N-(3-morpholin-4-ylphenyl)benzamide

> <PUBCHEM_IUPAC_TRADITIONAL_NAME>
4-methyl-3-[2-methyl-4-(5-methyl-1,3,4-oxadiazol-2-yl)phenyl]-N-(3-morpholinophenyl)benzamide

> <PUBCHEM_IUPAC_INCHI>
InChI=1S/C28H28N4O3/c1-18-7-8-21(27(33)29-23-5-4-6-24(17-23)32-11-13-34-14-12-32)16-26(18)25-10-9-22(15-19(25)2)28-31-30-20(3)35-28/h4-10,15-17H,11-14H2,1-3H3,(H,29,33)

> <PUBCHEM_IUPAC_INCHIKEY>
NCEXHVFUAONAAE-UHFFFAOYSA-N

> <PUBCHEM_XLOGP3_AA>
4.8

> <PUBCHEM_EXACT_MASS>
468.21614077

> <PUBCHEM_MOLECULAR_FORMULA>
C28H28N4O3

> <PUBCHEM_MOLECULAR_WEIGHT>
468.5

> <PUBCHEM_SMILES>
CC1=C(C=C(C=C1)C(=O)NC2=CC(=CC=C2)N3CCOCC3)C4=C(C=C(C=C4)C5=NN=C(O5)C)C

> <PUBCHEM_OPENEYE_CAN_SMILES>
CC1=C(C=C(C=C1)C(=O)NC2=CC(=CC=C2)N3CCOCC3)C4=C(C=C(C=C4)C5=NN=C(O5)C)C

> <PUBCHEM_OPENEYE_ISO_SMILES>
CC1=C(C=C(C=C1)C(=O)NC2=CC(=CC=C2)N3CCOCC3)C4=C(C=C(C=C4)C5=NN=C(O5)C)C

> <PUBCHEM_CACTVS_TPSA>
80.5

> <PUBCHEM_MONOISOTOPIC_WEIGHT>
468.21614077

> <PUBCHEM_TOTAL_CHARGE>
0

> <PUBCHEM_HEAVY_ATOM_COUNT>
35

> <PUBCHEM_ATOM_DEF_STEREO_COUNT>
0

> <PUBCHEM_ATOM_UDEF_STEREO_COUNT>
0

> <PUBCHEM_BOND_DEF_STEREO_COUNT>
0

> <PUBCHEM_BOND_UDEF_STEREO_COUNT>
0

> <PUBCHEM_ISOTOPIC_ATOM_COUNT>
0

> <PUBCHEM_COMPONENT_COUNT>
1

> <PUBCHEM_CACTVS_TAUTO_COUNT>
-1

> <PUBCHEM_COORDINATE_TYPE>
1
5
255

> <PUBCHEM_BONDANNOTATIONS>
12  13  8
12  14  8
13  15  8
14  18  8
15  20  8
16  19  8
16  23  8
17  22  8
17  25  8
18  20  8
19  26  8
21  23  8
21  27  8
22  28  8
25  30  8
26  27  8
28  29  8
29  30  8
3  33  8
3  34  8
6  33  8
6  7  8
7  34  8

$$$$
