24905209
  -OEChem-03192523332D

 32 35  0     0  0  0  0  0  0999 V2000
    4.6783   -2.1846    0.0000 N   0  0  0  0  0  0  0  0  0  0  0  0
    5.2619   -1.3799    0.0000 N   0  0  0  0  0  0  0  0  0  0  0  0
    7.1859    1.9372    0.0000 N   0  0  0  0  0  0  0  0  0  0  0  0
    2.8660   -2.3799    0.0000 N   0  0  0  0  0  0  0  0  0  0  0  0
    2.0000   -0.8799    0.0000 N   0  0  0  0  0  0  0  0  0  0  0  0
    2.8660    0.6201    0.0000 N   0  0  0  0  0  0  0  0  0  0  0  0
    4.6783   -0.5752    0.0000 C   0  0  0  0  0  0  0  0  0  0  0  0
    4.9889    0.3754    0.0000 C   0  0  0  0  0  0  0  0  0  0  0  0
    3.7320   -0.8799    0.0000 C   0  0  0  0  0  0  0  0  0  0  0  0
    3.7320   -1.8799    0.0000 C   0  0  0  0  0  0  0  0  0  0  0  0
    6.2781    1.5321    0.0000 C   0  0  0  0  0  0  0  0  0  0  0  0
    5.6103    2.2764    0.0000 C   0  0  0  0  0  0  0  0  0  0  0  0
    5.9674    0.5816    0.0000 C   0  0  0  0  0  0  0  0  0  0  0  0
    4.3211    1.1197    0.0000 C   0  0  0  0  0  0  0  0  0  0  0  0
    4.6318    2.0702    0.0000 C   0  0  0  0  0  0  0  0  0  0  0  0
    2.8660   -0.3799    0.0000 C   0  0  0  0  0  0  0  0  0  0  0  0
    6.1110    3.1351    0.0000 C   0  0  0  0  0  0  0  0  0  0  0  0
    4.9889   -3.1351    0.0000 C   0  0  0  0  0  0  0  0  0  0  0  0
    7.0828    2.9259    0.0000 C   0  0  0  0  0  0  0  0  0  0  0  0
    2.0000   -1.8799    0.0000 C   0  0  0  0  0  0  0  0  0  0  0  0
    6.3815    0.1201    0.0000 H   0  0  0  0  0  0  0  0  0  0  0  0
    3.7144    0.9918    0.0000 H   0  0  0  0  0  0  0  0  0  0  0  0
    4.2177    2.5316    0.0000 H   0  0  0  0  0  0  0  0  0  0  0  0
    7.7228    1.6272    0.0000 H   0  0  0  0  0  0  0  0  0  0  0  0
    5.8608    3.7024    0.0000 H   0  0  0  0  0  0  0  0  0  0  0  0
    4.3996   -3.3278    0.0000 H   0  0  0  0  0  0  0  0  0  0  0  0
    5.1815   -3.7245    0.0000 H   0  0  0  0  0  0  0  0  0  0  0  0
    5.5783   -2.9425    0.0000 H   0  0  0  0  0  0  0  0  0  0  0  0
    7.5443    3.3400    0.0000 H   0  0  0  0  0  0  0  0  0  0  0  0
    1.4631   -2.1899    0.0000 H   0  0  0  0  0  0  0  0  0  0  0  0
    2.3291    0.9301    0.0000 H   0  0  0  0  0  0  0  0  0  0  0  0
    3.4030    0.9301    0.0000 H   0  0  0  0  0  0  0  0  0  0  0  0
  1  2  1  0  0  0  0
  1 10  1  0  0  0  0
  1 18  1  0  0  0  0
  2  7  2  0  0  0  0
  3 11  1  0  0  0  0
  3 19  1  0  0  0  0
  3 24  1  0  0  0  0
  4 10  2  0  0  0  0
  4 20  1  0  0  0  0
  5 16  1  0  0  0  0
  5 20  2  0  0  0  0
  6 16  1  0  0  0  0
  6 31  1  0  0  0  0
  6 32  1  0  0  0  0
  7  8  1  0  0  0  0
  7  9  1  0  0  0  0
  8 13  2  0  0  0  0
  8 14  1  0  0  0  0
  9 10  1  0  0  0  0
  9 16  2  0  0  0  0
 11 12  2  0  0  0  0
 11 13  1  0  0  0  0
 12 15  1  0  0  0  0
 12 17  1  0  0  0  0
 13 21  1  0  0  0  0
 14 15  2  0  0  0  0
 14 22  1  0  0  0  0
 15 23  1  0  0  0  0
 17 19  2  0  0  0  0
 17 25  1  0  0  0  0
 18 26  1  0  0  0  0
 18 27  1  0  0  0  0
 18 28  1  0  0  0  0
 19 29  1  0  0  0  0
 20 30  1  0  0  0  0
M  END
> <PUBCHEM_COMPOUND_CID>
24905209

> <PUBCHEM_COMPOUND_CANONICALIZED>
1

> <PUBCHEM_CACTVS_COMPLEXITY>
364

> <PUBCHEM_CACTVS_HBOND_ACCEPTOR>
4

> <PUBCHEM_CACTVS_HBOND_DONOR>
2

> <PUBCHEM_CACTVS_ROTATABLE_BOND>
1

> <PUBCHEM_CACTVS_SUBSKEYS>
AAADccBzgAAAAAAAAAAAAAAAAAAAAWLAAAA8QAAAAAAAAFgB/gAAHAAYAAAADAjBHwQ/8P7JkACiAzZnZACShCsxgqAd2aA4ZJiIKOLA2dGEpAhomALIyCcQgMAOQAAAQAACAACAAACAAAQAAAAAAAAAAA==

> <PUBCHEM_IUPAC_OPENEYE_NAME>
3-(1H-indol-6-yl)-1-methyl-pyrazolo[3,4-d]pyrimidin-4-amine

> <PUBCHEM_IUPAC_CAS_NAME>
3-(1H-indol-6-yl)-1-methyl-4-pyrazolo[3,4-d]pyrimidinamine

> <PUBCHEM_IUPAC_NAME_MARKUP>
3-(1<I>H</I>-indol-6-yl)-1-methylpyrazolo[3,4-d]pyrimidin-4-amine

> <PUBCHEM_IUPAC_NAME>
3-(1H-indol-6-yl)-1-methylpyrazolo[3,4-d]pyrimidin-4-amine

> <PUBCHEM_IUPAC_SYSTEMATIC_NAME>
3-(1H-indol-6-yl)-1-methyl-pyrazolo[3,4-d]pyrimidin-4-amine

> <PUBCHEM_IUPAC_TRADITIONAL_NAME>
[3-(1H-indol-6-yl)-1-methyl-pyrazolo[3,4-d]pyrimidin-4-yl]amine

> <PUBCHEM_IUPAC_INCHI>
InChI=1S/C14H12N6/c1-20-14-11(13(15)17-7-18-14)12(19-20)9-3-2-8-4-5-16-10(8)6-9/h2-7,16H,1H3,(H2,15,17,18)

> <PUBCHEM_IUPAC_INCHIKEY>
RUQMPILTACLXOK-UHFFFAOYSA-N

> <PUBCHEM_XLOGP3_AA>
1.6

> <PUBCHEM_EXACT_MASS>
264.11234441

> <PUBCHEM_MOLECULAR_FORMULA>
C14H12N6

> <PUBCHEM_MOLECULAR_WEIGHT>
264.29

> <PUBCHEM_SMILES>
CN1C2=NC=NC(=C2C(=N1)C3=CC4=C(C=C3)C=CN4)N

> <PUBCHEM_OPENEYE_CAN_SMILES>
CN1C2=NC=NC(=C2C(=N1)C3=CC4=C(C=C3)C=CN4)N

> <PUBCHEM_OPENEYE_ISO_SMILES>
CN1C2=NC=NC(=C2C(=N1)C3=CC4=C(C=C3)C=CN4)N

> <PUBCHEM_CACTVS_TPSA>
85.4

> <PUBCHEM_MONOISOTOPIC_WEIGHT>
264.11234441

> <PUBCHEM_TOTAL_CHARGE>
0

> <PUBCHEM_HEAVY_ATOM_COUNT>
20

> <PUBCHEM_ATOM_DEF_STEREO_COUNT>
0

> <PUBCHEM_ATOM_UDEF_STEREO_COUNT>
0

> <PUBCHEM_BOND_DEF_STEREO_COUNT>
0

> <PUBCHEM_BOND_UDEF_STEREO_COUNT>
0

> <PUBCHEM_ISOTOPIC_ATOM_COUNT>
0

> <PUBCHEM_COMPONENT_COUNT>
1

> <PUBCHEM_CACTVS_TAUTO_COUNT>
-1

> <PUBCHEM_COORDINATE_TYPE>
1
5
255

> <PUBCHEM_BONDANNOTATIONS>
1  10  8
1  2  8
11  12  8
11  13  8
12  15  8
12  17  8
14  15  8
17  19  8
2  7  8
3  11  8
3  19  8
4  10  8
4  20  8
5  16  8
5  20  8
7  9  8
8  13  8
8  14  8
9  10  8
9  16  8

$$$$
