153273973
  -OEChem-03222502042D

 27 29  0     0  0  0  0  0  0999 V2000
    3.9158    1.0238    0.0000 S   0  0  0  0  0  0  0  0  0  0  0  0
    5.4680   -1.0466    0.0000 O   0  0  0  0  0  0  0  0  0  0  0  0
    9.1874   -0.9176    0.0000 N   0  0  0  0  0  0  0  0  0  0  0  0
    3.7467   -0.5853    0.0000 N   0  0  0  0  0  0  0  0  0  0  0  0
    2.2522    0.3852    0.0000 N   0  0  0  0  0  0  0  0  0  0  0  0
    6.5614    0.6171    0.0000 C   0  0  0  0  0  0  0  0  0  0  0  0
    8.2935    0.6171    0.0000 C   0  0  0  0  0  0  0  0  0  0  0  0
    7.4274    1.1171    0.0000 C   0  0  0  0  0  0  0  0  0  0  0  0
    8.2935   -0.3829    0.0000 C   0  0  0  0  0  0  0  0  0  0  0  0
    5.6954    1.1171    0.0000 C   0  0  0  0  0  0  0  0  0  0  0  0
    6.5614   -0.3829    0.0000 C   0  0  0  0  0  0  0  0  0  0  0  0
    7.4274   -0.8829    0.0000 C   0  0  0  0  0  0  0  0  0  0  0  0
    4.8294    0.6171    0.0000 C   0  0  0  0  0  0  0  0  0  0  0  0
    9.1874    1.1518    0.0000 C   0  0  0  0  0  0  0  0  0  0  0  0
    4.7248   -0.3774    0.0000 C   0  0  0  0  0  0  0  0  0  0  0  0
   10.0935    0.6379    0.0000 C   0  0  0  0  0  0  0  0  0  0  0  0
    3.2467    0.2807    0.0000 C   0  0  0  0  0  0  0  0  0  0  0  0
   10.0935   -0.4037    0.0000 C   0  0  0  0  0  0  0  0  0  0  0  0
    7.4274    1.7371    0.0000 H   0  0  0  0  0  0  0  0  0  0  0  0
    5.6954    1.7371    0.0000 H   0  0  0  0  0  0  0  0  0  0  0  0
    6.0245   -0.6929    0.0000 H   0  0  0  0  0  0  0  0  0  0  0  0
    7.4274   -1.5029    0.0000 H   0  0  0  0  0  0  0  0  0  0  0  0
    9.1802    1.7717    0.0000 H   0  0  0  0  0  0  0  0  0  0  0  0
    3.4945   -1.1518    0.0000 H   0  0  0  0  0  0  0  0  0  0  0  0
   10.6292    0.9500    0.0000 H   0  0  0  0  0  0  0  0  0  0  0  0
   10.6292   -0.7158    0.0000 H   0  0  0  0  0  0  0  0  0  0  0  0
    2.0000    0.9516    0.0000 H   0  0  0  0  0  0  0  0  0  0  0  0
  1 13  1  0  0  0  0
  1 17  1  0  0  0  0
  2 15  2  0  0  0  0
  3  9  1  0  0  0  0
  3 18  2  0  0  0  0
  4 15  1  0  0  0  0
  4 17  1  0  0  0  0
  4 24  1  0  0  0  0
  5 17  2  0  0  0  0
  5 27  1  0  0  0  0
  6  8  2  0  0  0  0
  6 10  1  0  0  0  0
  6 11  1  0  0  0  0
  7  8  1  0  0  0  0
  7  9  2  0  0  0  0
  7 14  1  0  0  0  0
  8 19  1  0  0  0  0
  9 12  1  0  0  0  0
 10 13  2  3  0  0  0
 10 20  1  0  0  0  0
 11 12  2  0  0  0  0
 11 21  1  0  0  0  0
 12 22  1  0  0  0  0
 13 15  1  0  0  0  0
 14 16  2  0  0  0  0
 14 23  1  0  0  0  0
 16 18  1  0  0  0  0
 16 25  1  0  0  0  0
 18 26  1  0  0  0  0
M  END
> <PUBCHEM_COMPOUND_CID>
153273973

> <PUBCHEM_COMPOUND_CANONICALIZED>
1

> <PUBCHEM_CACTVS_COMPLEXITY>
407

> <PUBCHEM_CACTVS_HBOND_ACCEPTOR>
4

> <PUBCHEM_CACTVS_HBOND_DONOR>
2

> <PUBCHEM_CACTVS_ROTATABLE_BOND>
1

> <PUBCHEM_CACTVS_SUBSKEYS>
AAADccBzIABAAAAAAAAAAAAAAAAAAWAAAAA8QAAAAAAAAACx8AAAHgQQAAAADAjB3gQ9wPLIEAioAzV3dACCgiDxAjAJ2CA4ZNgIIOLAmZGEIAhggADIyYcQgMAOCAACAAACAAAQAAQAAAQAAAAAAAAAAA==

> <PUBCHEM_IUPAC_OPENEYE_NAME>
2-imino-5-(6-quinolylmethylene)thiazolidin-4-one

> <PUBCHEM_IUPAC_CAS_NAME>
2-imino-5-(6-quinolinylmethylidene)-4-thiazolidinone

> <PUBCHEM_IUPAC_NAME_MARKUP>
2-imino-5-(quinolin-6-ylmethylidene)-1,3-thiazolidin-4-one

> <PUBCHEM_IUPAC_NAME>
2-imino-5-(quinolin-6-ylmethylidene)-1,3-thiazolidin-4-one

> <PUBCHEM_IUPAC_SYSTEMATIC_NAME>
2-azanylidene-5-(quinolin-6-ylmethylidene)-1,3-thiazolidin-4-one

> <PUBCHEM_IUPAC_TRADITIONAL_NAME>
2-imino-5-(6-quinolylmethylene)thiazolidin-4-one

> <PUBCHEM_IUPAC_INCHI>
InChI=1S/C13H9N3OS/c14-13-16-12(17)11(18-13)7-8-3-4-10-9(6-8)2-1-5-15-10/h1-7H,(H2,14,16,17)

> <PUBCHEM_IUPAC_INCHIKEY>
GWSGFSPSQGXVFI-UHFFFAOYSA-N

> <PUBCHEM_XLOGP3_AA>
2.6

> <PUBCHEM_EXACT_MASS>
255.04663309

> <PUBCHEM_MOLECULAR_FORMULA>
C13H9N3OS

> <PUBCHEM_MOLECULAR_WEIGHT>
255.30

> <PUBCHEM_SMILES>
C1=CC2=C(C=CC(=C2)C=C3C(=O)NC(=N)S3)N=C1

> <PUBCHEM_OPENEYE_CAN_SMILES>
C1=CC2=C(C=CC(=C2)C=C3C(=O)NC(=N)S3)N=C1

> <PUBCHEM_OPENEYE_ISO_SMILES>
C1=CC2=C(C=CC(=C2)C=C3C(=O)NC(=N)S3)N=C1

> <PUBCHEM_CACTVS_TPSA>
91.1

> <PUBCHEM_MONOISOTOPIC_WEIGHT>
255.04663309

> <PUBCHEM_TOTAL_CHARGE>
0

> <PUBCHEM_HEAVY_ATOM_COUNT>
18

> <PUBCHEM_ATOM_DEF_STEREO_COUNT>
0

> <PUBCHEM_ATOM_UDEF_STEREO_COUNT>
0

> <PUBCHEM_BOND_DEF_STEREO_COUNT>
0

> <PUBCHEM_BOND_UDEF_STEREO_COUNT>
1

> <PUBCHEM_ISOTOPIC_ATOM_COUNT>
0

> <PUBCHEM_COMPONENT_COUNT>
1

> <PUBCHEM_CACTVS_TAUTO_COUNT>
-1

> <PUBCHEM_COORDINATE_TYPE>
1
5
255

> <PUBCHEM_BONDANNOTATIONS>
10  13  1
11  12  8
14  16  8
16  18  8
3  18  8
3  9  8
6  11  8
6  8  8
7  14  8
7  8  8
7  9  8
9  12  8

$$$$
