36559462
  -OEChem-03202502492D

 32 34  0     0  0  0  0  0  0999 V2000
    2.8660   -1.5000    0.0000 Cl  0  0  0  0  0  0  0  0  0  0  0  0
    5.4641    1.0000    0.0000 O   0  0  0  0  0  0  0  0  0  0  0  0
    6.3301   -0.5000    0.0000 N   0  0  0  0  0  0  0  0  0  0  0  0
    9.8744   -0.3047    0.0000 N   0  0  0  0  0  0  0  0  0  0  0  0
   10.4580    0.5000    0.0000 N   0  0  0  0  0  0  0  0  0  0  0  0
    8.9282   -0.0000    0.0000 C   0  0  0  0  0  0  0  0  0  0  0  0
    7.1962   -0.0000    0.0000 C   0  0  0  0  0  0  0  0  0  0  0  0
    8.9282    1.0000    0.0000 C   0  0  0  0  0  0  0  0  0  0  0  0
    4.5981   -0.5000    0.0000 C   0  0  0  0  0  0  0  0  0  0  0  0
    8.0622   -0.5000    0.0000 C   0  0  0  0  0  0  0  0  0  0  0  0
    3.7320   -0.0000    0.0000 C   0  0  0  0  0  0  0  0  0  0  0  0
    7.1962    1.0000    0.0000 C   0  0  0  0  0  0  0  0  0  0  0  0
    8.0622    1.5000    0.0000 C   0  0  0  0  0  0  0  0  0  0  0  0
    5.4641   -0.0000    0.0000 C   0  0  0  0  0  0  0  0  0  0  0  0
    9.8744    1.3047    0.0000 C   0  0  0  0  0  0  0  0  0  0  0  0
    2.8660   -0.5000    0.0000 C   0  0  0  0  0  0  0  0  0  0  0  0
    3.7320    1.0000    0.0000 C   0  0  0  0  0  0  0  0  0  0  0  0
    2.0000    0.0000    0.0000 C   0  0  0  0  0  0  0  0  0  0  0  0
    2.8660    1.5000    0.0000 C   0  0  0  0  0  0  0  0  0  0  0  0
    2.0000    1.0000    0.0000 C   0  0  0  0  0  0  0  0  0  0  0  0
    4.1996   -0.9749    0.0000 H   0  0  0  0  0  0  0  0  0  0  0  0
    4.9966   -0.9749    0.0000 H   0  0  0  0  0  0  0  0  0  0  0  0
    8.0622   -1.1200    0.0000 H   0  0  0  0  0  0  0  0  0  0  0  0
    6.6592    1.3100    0.0000 H   0  0  0  0  0  0  0  0  0  0  0  0
    6.3301   -1.1200    0.0000 H   0  0  0  0  0  0  0  0  0  0  0  0
    8.0622    2.1200    0.0000 H   0  0  0  0  0  0  0  0  0  0  0  0
   10.0670   -0.8941    0.0000 H   0  0  0  0  0  0  0  0  0  0  0  0
   10.0670    1.8940    0.0000 H   0  0  0  0  0  0  0  0  0  0  0  0
    4.2690    1.3100    0.0000 H   0  0  0  0  0  0  0  0  0  0  0  0
    1.4631   -0.3100    0.0000 H   0  0  0  0  0  0  0  0  0  0  0  0
    2.8660    2.1200    0.0000 H   0  0  0  0  0  0  0  0  0  0  0  0
    1.4631    1.3100    0.0000 H   0  0  0  0  0  0  0  0  0  0  0  0
  1 16  1  0  0  0  0
  2 14  2  0  0  0  0
  3  7  1  0  0  0  0
  3 14  1  0  0  0  0
  3 25  1  0  0  0  0
  4  5  1  0  0  0  0
  4  6  1  0  0  0  0
  4 27  1  0  0  0  0
  5 15  2  0  0  0  0
  6  8  2  0  0  0  0
  6 10  1  0  0  0  0
  7 10  2  0  0  0  0
  7 12  1  0  0  0  0
  8 13  1  0  0  0  0
  8 15  1  0  0  0  0
  9 11  1  0  0  0  0
  9 14  1  0  0  0  0
  9 21  1  0  0  0  0
  9 22  1  0  0  0  0
 10 23  1  0  0  0  0
 11 16  1  0  0  0  0
 11 17  2  0  0  0  0
 12 13  2  0  0  0  0
 12 24  1  0  0  0  0
 13 26  1  0  0  0  0
 15 28  1  0  0  0  0
 16 18  2  0  0  0  0
 17 19  1  0  0  0  0
 17 29  1  0  0  0  0
 18 20  1  0  0  0  0
 18 30  1  0  0  0  0
 19 20  2  0  0  0  0
 19 31  1  0  0  0  0
 20 32  1  0  0  0  0
M  END
> <PUBCHEM_COMPOUND_CID>
36559462

> <PUBCHEM_COMPOUND_CANONICALIZED>
1

> <PUBCHEM_CACTVS_COMPLEXITY>
352

> <PUBCHEM_CACTVS_HBOND_ACCEPTOR>
2

> <PUBCHEM_CACTVS_HBOND_DONOR>
2

> <PUBCHEM_CACTVS_ROTATABLE_BOND>
3

> <PUBCHEM_CACTVS_SUBSKEYS>
AAADccBzIAAEAAAAAAAAAAAAAAAAAWAAAAAwYAAAAAAAAFgB9AAAHgIYAAAADArBniQ8wPLjAACqAzV3UACSBAAhhwAYuSEwZpgIILLB19GEpAhgnADIyAcYiICOCAAAAAQDAAAQAAAACAYAAAAAAAAAAA==

> <PUBCHEM_IUPAC_OPENEYE_NAME>
2-(2-chlorophenyl)-N-(1H-indazol-6-yl)acetamide

> <PUBCHEM_IUPAC_CAS_NAME>
2-(2-chlorophenyl)-N-(1H-indazol-6-yl)acetamide

> <PUBCHEM_IUPAC_NAME_MARKUP>
2-(2-chlorophenyl)-<I>N</I>-(1<I>H</I>-indazol-6-yl)acetamide

> <PUBCHEM_IUPAC_NAME>
2-(2-chlorophenyl)-N-(1H-indazol-6-yl)acetamide

> <PUBCHEM_IUPAC_SYSTEMATIC_NAME>
2-(2-chlorophenyl)-N-(1H-indazol-6-yl)ethanamide

> <PUBCHEM_IUPAC_TRADITIONAL_NAME>
2-(2-chlorophenyl)-N-(1H-indazol-6-yl)acetamide

> <PUBCHEM_IUPAC_INCHI>
InChI=1S/C15H12ClN3O/c16-13-4-2-1-3-10(13)7-15(20)18-12-6-5-11-9-17-19-14(11)8-12/h1-6,8-9H,7H2,(H,17,19)(H,18,20)

> <PUBCHEM_IUPAC_INCHIKEY>
LNYJUWCJKQGEPR-UHFFFAOYSA-N

> <PUBCHEM_XLOGP3_AA>
3

> <PUBCHEM_EXACT_MASS>
285.0668897

> <PUBCHEM_MOLECULAR_FORMULA>
C15H12ClN3O

> <PUBCHEM_MOLECULAR_WEIGHT>
285.73

> <PUBCHEM_SMILES>
C1=CC=C(C(=C1)CC(=O)NC2=CC3=C(C=C2)C=NN3)Cl

> <PUBCHEM_OPENEYE_CAN_SMILES>
C1=CC=C(C(=C1)CC(=O)NC2=CC3=C(C=C2)C=NN3)Cl

> <PUBCHEM_OPENEYE_ISO_SMILES>
C1=CC=C(C(=C1)CC(=O)NC2=CC3=C(C=C2)C=NN3)Cl

> <PUBCHEM_CACTVS_TPSA>
57.8

> <PUBCHEM_MONOISOTOPIC_WEIGHT>
285.0668897

> <PUBCHEM_TOTAL_CHARGE>
0

> <PUBCHEM_HEAVY_ATOM_COUNT>
20

> <PUBCHEM_ATOM_DEF_STEREO_COUNT>
0

> <PUBCHEM_ATOM_UDEF_STEREO_COUNT>
0

> <PUBCHEM_BOND_DEF_STEREO_COUNT>
0

> <PUBCHEM_BOND_UDEF_STEREO_COUNT>
0

> <PUBCHEM_ISOTOPIC_ATOM_COUNT>
0

> <PUBCHEM_COMPONENT_COUNT>
1

> <PUBCHEM_CACTVS_TAUTO_COUNT>
-1

> <PUBCHEM_COORDINATE_TYPE>
1
5
255

> <PUBCHEM_BONDANNOTATIONS>
11  16  8
11  17  8
12  13  8
16  18  8
17  19  8
18  20  8
19  20  8
4  5  8
4  6  8
5  15  8
6  10  8
6  8  8
7  10  8
7  12  8
8  13  8
8  15  8

$$$$
