46886319
  -OEChem-03192523202D

 72 78  0     0  0  0  0  0  0999 V2000
   11.9851   -3.4893    0.0000 S   0  0  0  0  0  0  0  0  0  0  0  0
    5.6594    6.1487    0.0000 O   0  0  0  0  0  0  0  0  0  0  0  0
    5.0000   -3.5506    0.0000 O   0  0  0  0  0  0  0  0  0  0  0  0
    6.2774    4.2466    0.0000 N   0  0  0  0  0  0  0  0  0  0  0  0
   11.0388   -2.1846    0.0000 N   0  0  0  0  0  0  0  0  0  0  0  0
   10.0878   -3.4936    0.0000 N   0  0  0  0  0  0  0  0  0  0  0  0
    7.5135    0.4424    0.0000 N   0  0  0  0  0  0  0  0  0  0  0  0
    8.8006   -0.7166    0.0000 N   0  0  0  0  0  0  0  0  0  0  0  0
    6.5000   -4.4166    0.0000 N   0  0  0  0  0  0  0  0  0  0  0  0
    9.1607    0.9776    0.0000 N   0  0  0  0  0  0  0  0  0  0  0  0
    5.2992    4.4545    0.0000 C   0  0  0  0  0  0  0  0  0  0  0  0
    6.9465    4.9897    0.0000 C   0  0  0  0  0  0  0  0  0  0  0  0
    4.9902    5.4056    0.0000 C   0  0  0  0  0  0  0  0  0  0  0  0
    6.6375    5.9408    0.0000 C   0  0  0  0  0  0  0  0  0  0  0  0
    6.5864    3.2955    0.0000 C   0  0  0  0  0  0  0  0  0  0  0  0
    7.5646    3.0876    0.0000 C   0  0  0  0  0  0  0  0  0  0  0  0
    5.9173    2.5524    0.0000 C   0  0  0  0  0  0  0  0  0  0  0  0
   10.0878   -1.8756    0.0000 C   0  0  0  0  0  0  0  0  0  0  0  0
    9.5000   -2.6846    0.0000 C   0  0  0  0  0  0  0  0  0  0  0  0
    7.2044    1.3934    0.0000 C   0  0  0  0  0  0  0  0  0  0  0  0
    7.8736    2.1366    0.0000 C   0  0  0  0  0  0  0  0  0  0  0  0
    6.2263    1.6013    0.0000 C   0  0  0  0  0  0  0  0  0  0  0  0
    8.5000   -2.6846    0.0000 C   0  0  0  0  0  0  0  0  0  0  0  0
   11.0388   -3.1846    0.0000 C   0  0  0  0  0  0  0  0  0  0  0  0
    9.7788   -0.9245    0.0000 C   0  0  0  0  0  0  0  0  0  0  0  0
   11.9851   -1.8799    0.0000 C   0  0  0  0  0  0  0  0  0  0  0  0
    8.0000   -3.5506    0.0000 C   0  0  0  0  0  0  0  0  0  0  0  0
    8.4916    0.2344    0.0000 C   0  0  0  0  0  0  0  0  0  0  0  0
    8.0000   -1.8186    0.0000 C   0  0  0  0  0  0  0  0  0  0  0  0
    7.0000   -3.5506    0.0000 C   0  0  0  0  0  0  0  0  0  0  0  0
   10.4479   -0.1814    0.0000 C   0  0  0  0  0  0  0  0  0  0  0  0
   12.5687   -2.6846    0.0000 C   0  0  0  0  0  0  0  0  0  0  0  0
    7.0000   -1.8186    0.0000 C   0  0  0  0  0  0  0  0  0  0  0  0
    6.5000   -2.6846    0.0000 C   0  0  0  0  0  0  0  0  0  0  0  0
   10.1389    0.7697    0.0000 C   0  0  0  0  0  0  0  0  0  0  0  0
    5.0000   -5.2827    0.0000 C   0  0  0  0  0  0  0  0  0  0  0  0
    5.5000   -4.4166    0.0000 C   0  0  0  0  0  0  0  0  0  0  0  0
    4.0000   -5.2827    0.0000 C   0  0  0  0  0  0  0  0  0  0  0  0
    3.5000   -4.4166    0.0000 C   0  0  0  0  0  0  0  0  0  0  0  0
    3.5000   -6.1487    0.0000 C   0  0  0  0  0  0  0  0  0  0  0  0
    2.5000   -4.4166    0.0000 C   0  0  0  0  0  0  0  0  0  0  0  0
    2.5000   -6.1487    0.0000 C   0  0  0  0  0  0  0  0  0  0  0  0
    2.0000   -5.2827    0.0000 C   0  0  0  0  0  0  0  0  0  0  0  0
    4.6853    4.3682    0.0000 H   0  0  0  0  0  0  0  0  0  0  0  0
    5.2776    3.8349    0.0000 H   0  0  0  0  0  0  0  0  0  0  0  0
    7.3282    4.5012    0.0000 H   0  0  0  0  0  0  0  0  0  0  0  0
    7.4940    5.2808    0.0000 H   0  0  0  0  0  0  0  0  0  0  0  0
    4.6085    5.8941    0.0000 H   0  0  0  0  0  0  0  0  0  0  0  0
    4.4428    5.1145    0.0000 H   0  0  0  0  0  0  0  0  0  0  0  0
    7.2515    6.0271    0.0000 H   0  0  0  0  0  0  0  0  0  0  0  0
    6.6591    6.5604    0.0000 H   0  0  0  0  0  0  0  0  0  0  0  0
    7.9794    3.5484    0.0000 H   0  0  0  0  0  0  0  0  0  0  0  0
    5.3108    2.6813    0.0000 H   0  0  0  0  0  0  0  0  0  0  0  0
    8.4800    2.0076    0.0000 H   0  0  0  0  0  0  0  0  0  0  0  0
    5.8114    1.1406    0.0000 H   0  0  0  0  0  0  0  0  0  0  0  0
    7.0986   -0.0184    0.0000 H   0  0  0  0  0  0  0  0  0  0  0  0
   12.1777   -1.2905    0.0000 H   0  0  0  0  0  0  0  0  0  0  0  0
    8.3100   -4.0876    0.0000 H   0  0  0  0  0  0  0  0  0  0  0  0
    8.3100   -1.2816    0.0000 H   0  0  0  0  0  0  0  0  0  0  0  0
   11.0544   -0.3103    0.0000 H   0  0  0  0  0  0  0  0  0  0  0  0
   13.1887   -2.6846    0.0000 H   0  0  0  0  0  0  0  0  0  0  0  0
    6.6900   -1.2816    0.0000 H   0  0  0  0  0  0  0  0  0  0  0  0
    5.8800   -2.6846    0.0000 H   0  0  0  0  0  0  0  0  0  0  0  0
   10.5537    1.2304    0.0000 H   0  0  0  0  0  0  0  0  0  0  0  0
    6.8100   -4.9536    0.0000 H   0  0  0  0  0  0  0  0  0  0  0  0
    4.8923   -5.8932    0.0000 H   0  0  0  0  0  0  0  0  0  0  0  0
    5.5826   -5.4947    0.0000 H   0  0  0  0  0  0  0  0  0  0  0  0
    3.8100   -3.8797    0.0000 H   0  0  0  0  0  0  0  0  0  0  0  0
    3.8100   -6.6856    0.0000 H   0  0  0  0  0  0  0  0  0  0  0  0
    2.1900   -3.8797    0.0000 H   0  0  0  0  0  0  0  0  0  0  0  0
    2.1900   -6.6856    0.0000 H   0  0  0  0  0  0  0  0  0  0  0  0
    1.3800   -5.2827    0.0000 H   0  0  0  0  0  0  0  0  0  0  0  0
  1 24  1  0  0  0  0
  1 32  1  0  0  0  0
  2 13  1  0  0  0  0
  2 14  1  0  0  0  0
  3 37  2  0  0  0  0
  4 11  1  0  0  0  0
  4 12  1  0  0  0  0
  4 15  1  0  0  0  0
  5 18  1  0  0  0  0
  5 24  1  0  0  0  0
  5 26  1  0  0  0  0
  6 19  1  0  0  0  0
  6 24  2  0  0  0  0
  7 20  1  0  0  0  0
  7 28  1  0  0  0  0
  7 56  1  0  0  0  0
  8 25  2  0  0  0  0
  8 28  1  0  0  0  0
  9 30  1  0  0  0  0
  9 37  1  0  0  0  0
  9 65  1  0  0  0  0
 10 28  2  0  0  0  0
 10 35  1  0  0  0  0
 11 13  1  0  0  0  0
 11 44  1  0  0  0  0
 11 45  1  0  0  0  0
 12 14  1  0  0  0  0
 12 46  1  0  0  0  0
 12 47  1  0  0  0  0
 13 48  1  0  0  0  0
 13 49  1  0  0  0  0
 14 50  1  0  0  0  0
 14 51  1  0  0  0  0
 15 16  2  0  0  0  0
 15 17  1  0  0  0  0
 16 21  1  0  0  0  0
 16 52  1  0  0  0  0
 17 22  2  0  0  0  0
 17 53  1  0  0  0  0
 18 19  2  0  0  0  0
 18 25  1  0  0  0  0
 19 23  1  0  0  0  0
 20 21  2  0  0  0  0
 20 22  1  0  0  0  0
 21 54  1  0  0  0  0
 22 55  1  0  0  0  0
 23 27  2  0  0  0  0
 23 29  1  0  0  0  0
 25 31  1  0  0  0  0
 26 32  2  0  0  0  0
 26 57  1  0  0  0  0
 27 30  1  0  0  0  0
 27 58  1  0  0  0  0
 29 33  2  0  0  0  0
 29 59  1  0  0  0  0
 30 34  2  0  0  0  0
 31 35  2  0  0  0  0
 31 60  1  0  0  0  0
 32 61  1  0  0  0  0
 33 34  1  0  0  0  0
 33 62  1  0  0  0  0
 34 63  1  0  0  0  0
 35 64  1  0  0  0  0
 36 37  1  0  0  0  0
 36 38  1  0  0  0  0
 36 66  1  0  0  0  0
 36 67  1  0  0  0  0
 38 39  2  0  0  0  0
 38 40  1  0  0  0  0
 39 41  1  0  0  0  0
 39 68  1  0  0  0  0
 40 42  2  0  0  0  0
 40 69  1  0  0  0  0
 41 43  2  0  0  0  0
 41 70  1  0  0  0  0
 42 43  1  0  0  0  0
 42 71  1  0  0  0  0
 43 72  1  0  0  0  0
M  END
> <PUBCHEM_COMPOUND_CID>
46886319

> <PUBCHEM_COMPOUND_CANONICALIZED>
1

> <PUBCHEM_CACTVS_COMPLEXITY>
894

> <PUBCHEM_CACTVS_HBOND_ACCEPTOR>
8

> <PUBCHEM_CACTVS_HBOND_DONOR>
2

> <PUBCHEM_CACTVS_ROTATABLE_BOND>
8

> <PUBCHEM_CACTVS_SUBSKEYS>
AAADceB/sABAAAAAAAAAAAAAAAAAAWLAAAA8eMECAAAWAAAB/AAAHgQQAAAADAjl3ga90ZfMHAisAzV3dACC8K1xGrhJ2C04dJiKaPLA3dGXJAholALYyCcYiMCOAACAQAAAAAAAAQCAAAAAAAAAAAAAAA==

> <PUBCHEM_IUPAC_OPENEYE_NAME>
N-[3-[5-[2-(4-morpholinoanilino)pyrimidin-4-yl]imidazo[2,1-b]thiazol-6-yl]phenyl]-2-phenyl-acetamide

> <PUBCHEM_IUPAC_CAS_NAME>
N-[3-[5-[2-[4-(4-morpholinyl)anilino]-4-pyrimidinyl]-6-imidazo[2,1-b]thiazolyl]phenyl]-2-phenylacetamide

> <PUBCHEM_IUPAC_NAME_MARKUP>
<I>N</I>-[3-[5-[2-(4-morpholin-4-ylanilino)pyrimidin-4-yl]imidazo[2,1-b][1,3]thiazol-6-yl]phenyl]-2-phenylacetamide

> <PUBCHEM_IUPAC_NAME>
N-[3-[5-[2-(4-morpholin-4-ylanilino)pyrimidin-4-yl]imidazo[2,1-b][1,3]thiazol-6-yl]phenyl]-2-phenylacetamide

> <PUBCHEM_IUPAC_SYSTEMATIC_NAME>
N-[3-[5-[2-[(4-morpholin-4-ylphenyl)amino]pyrimidin-4-yl]imidazo[2,1-b][1,3]thiazol-6-yl]phenyl]-2-phenyl-ethanamide

> <PUBCHEM_IUPAC_TRADITIONAL_NAME>
N-[3-[5-[2-(4-morpholinoanilino)pyrimidin-4-yl]imidazo[2,1-b]thiazol-6-yl]phenyl]-2-phenyl-acetamide

> <PUBCHEM_IUPAC_INCHI>
InChI=1S/C33H29N7O2S/c41-29(21-23-5-2-1-3-6-23)35-26-8-4-7-24(22-26)30-31(40-17-20-43-33(40)38-30)28-13-14-34-32(37-28)36-25-9-11-27(12-10-25)39-15-18-42-19-16-39/h1-14,17,20,22H,15-16,18-19,21H2,(H,35,41)(H,34,36,37)

> <PUBCHEM_IUPAC_INCHIKEY>
BFTPDUXUTFGDLP-UHFFFAOYSA-N

> <PUBCHEM_XLOGP3_AA>
5.9

> <PUBCHEM_EXACT_MASS>
587.21034437

> <PUBCHEM_MOLECULAR_FORMULA>
C33H29N7O2S

> <PUBCHEM_MOLECULAR_WEIGHT>
587.7

> <PUBCHEM_SMILES>
C1COCCN1C2=CC=C(C=C2)NC3=NC=CC(=N3)C4=C(N=C5N4C=CS5)C6=CC(=CC=C6)NC(=O)CC7=CC=CC=C7

> <PUBCHEM_OPENEYE_CAN_SMILES>
C1COCCN1C2=CC=C(C=C2)NC3=NC=CC(=N3)C4=C(N=C5N4C=CS5)C6=CC(=CC=C6)NC(=O)CC7=CC=CC=C7

> <PUBCHEM_OPENEYE_ISO_SMILES>
C1COCCN1C2=CC=C(C=C2)NC3=NC=CC(=N3)C4=C(N=C5N4C=CS5)C6=CC(=CC=C6)NC(=O)CC7=CC=CC=C7

> <PUBCHEM_CACTVS_TPSA>
125

> <PUBCHEM_MONOISOTOPIC_WEIGHT>
587.21034437

> <PUBCHEM_TOTAL_CHARGE>
0

> <PUBCHEM_HEAVY_ATOM_COUNT>
43

> <PUBCHEM_ATOM_DEF_STEREO_COUNT>
0

> <PUBCHEM_ATOM_UDEF_STEREO_COUNT>
0

> <PUBCHEM_BOND_DEF_STEREO_COUNT>
0

> <PUBCHEM_BOND_UDEF_STEREO_COUNT>
0

> <PUBCHEM_ISOTOPIC_ATOM_COUNT>
0

> <PUBCHEM_COMPONENT_COUNT>
1

> <PUBCHEM_CACTVS_TAUTO_COUNT>
-1

> <PUBCHEM_COORDINATE_TYPE>
1
5
255

> <PUBCHEM_BONDANNOTATIONS>
1  24  8
1  32  8
10  28  8
10  35  8
15  16  8
15  17  8
16  21  8
17  22  8
18  19  8
20  21  8
20  22  8
23  27  8
23  29  8
25  31  8
26  32  8
27  30  8
29  33  8
30  34  8
31  35  8
33  34  8
38  39  8
38  40  8
39  41  8
40  42  8
41  43  8
42  43  8
5  18  8
5  24  8
5  26  8
6  19  8
6  24  8
8  25  8
8  28  8

$$$$
