24894993
  -OEChem-03202506252D

 64 68  0     0  0  0  0  0  0999 V2000
    4.3211   -1.5366    0.0000 O   0  0  0  0  0  0  0  0  0  0  0  0
    6.7523    4.6120    0.0000 O   0  0  0  0  0  0  0  0  0  0  0  0
    9.3850    2.6575    0.0000 O   0  0  0  0  0  0  0  0  0  0  0  0
    7.3440   -0.1415    0.0000 O   0  0  0  0  0  0  0  0  0  0  0  0
    9.1725    0.6688    0.0000 O   0  0  0  0  0  0  0  0  0  0  0  0
    4.6783    0.1582    0.0000 N   0  0  0  0  0  0  0  0  0  0  0  0
    4.9917    4.3362    0.0000 N   0  0  0  0  0  0  0  0  0  0  0  0
    4.6783    1.7677    0.0000 C   0  0  0  0  0  0  0  0  0  0  0  0
    4.9889    2.7182    0.0000 C   0  0  0  0  0  0  0  0  0  0  0  0
    3.7320    1.4630    0.0000 C   0  0  0  0  0  0  0  0  0  0  0  0
    3.7320    0.4630    0.0000 C   0  0  0  0  0  0  0  0  0  0  0  0
    4.4026    3.5282    0.0000 C   0  0  0  0  0  0  0  0  0  0  0  0
    5.9405    3.0256    0.0000 C   0  0  0  0  0  0  0  0  0  0  0  0
    5.2619    0.9630    0.0000 C   0  0  0  0  0  0  0  0  0  0  0  0
    5.9422    4.0256    0.0000 C   0  0  0  0  0  0  0  0  0  0  0  0
    6.7485    2.4364    0.0000 C   0  0  0  0  0  0  0  0  0  0  0  0
    4.9889   -0.7923    0.0000 C   0  0  0  0  0  0  0  0  0  0  0  0
    2.8660    1.9630    0.0000 C   0  0  0  0  0  0  0  0  0  0  0  0
    2.8660   -0.0370    0.0000 C   0  0  0  0  0  0  0  0  0  0  0  0
    2.0000    1.4630    0.0000 C   0  0  0  0  0  0  0  0  0  0  0  0
    2.0000    0.4630    0.0000 C   0  0  0  0  0  0  0  0  0  0  0  0
    6.6423    1.4421    0.0000 C   0  0  0  0  0  0  0  0  0  0  0  0
    7.6628    2.8416    0.0000 C   0  0  0  0  0  0  0  0  0  0  0  0
    8.4708    2.2524    0.0000 C   0  0  0  0  0  0  0  0  0  0  0  0
    7.4503    0.8529    0.0000 C   0  0  0  0  0  0  0  0  0  0  0  0
    8.3645    1.2580    0.0000 C   0  0  0  0  0  0  0  0  0  0  0  0
    4.6318   -2.4871    0.0000 C   0  0  0  0  0  0  0  0  0  0  0  0
    3.9639   -3.2314    0.0000 C   0  0  0  0  0  0  0  0  0  0  0  0
    4.2746   -4.1819    0.0000 C   0  0  0  0  0  0  0  0  0  0  0  0
    2.9854   -3.0252    0.0000 C   0  0  0  0  0  0  0  0  0  0  0  0
    9.4913    3.6519    0.0000 C   0  0  0  0  0  0  0  0  0  0  0  0
    8.1520   -0.7306    0.0000 C   0  0  0  0  0  0  0  0  0  0  0  0
   10.0868    1.0740    0.0000 C   0  0  0  0  0  0  0  0  0  0  0  0
    3.6067   -4.9262    0.0000 C   0  0  0  0  0  0  0  0  0  0  0  0
    2.3176   -3.7695    0.0000 C   0  0  0  0  0  0  0  0  0  0  0  0
    2.6282   -4.7200    0.0000 C   0  0  0  0  0  0  0  0  0  0  0  0
    3.9425    3.9439    0.0000 H   0  0  0  0  0  0  0  0  0  0  0  0
    3.9411    3.1142    0.0000 H   0  0  0  0  0  0  0  0  0  0  0  0
    5.8819    0.9630    0.0000 H   0  0  0  0  0  0  0  0  0  0  0  0
    4.8012    4.9262    0.0000 H   0  0  0  0  0  0  0  0  0  0  0  0
    5.3715   -1.2802    0.0000 H   0  0  0  0  0  0  0  0  0  0  0  0
    5.5359   -0.5003    0.0000 H   0  0  0  0  0  0  0  0  0  0  0  0
    2.8660    2.5830    0.0000 H   0  0  0  0  0  0  0  0  0  0  0  0
    2.8660   -0.6570    0.0000 H   0  0  0  0  0  0  0  0  0  0  0  0
    1.4631    1.7730    0.0000 H   0  0  0  0  0  0  0  0  0  0  0  0
    1.4631    0.1530    0.0000 H   0  0  0  0  0  0  0  0  0  0  0  0
    6.0754    1.1909    0.0000 H   0  0  0  0  0  0  0  0  0  0  0  0
    7.7286    3.4580    0.0000 H   0  0  0  0  0  0  0  0  0  0  0  0
    5.0143   -2.9750    0.0000 H   0  0  0  0  0  0  0  0  0  0  0  0
    5.1787   -2.1951    0.0000 H   0  0  0  0  0  0  0  0  0  0  0  0
    4.8812   -4.3098    0.0000 H   0  0  0  0  0  0  0  0  0  0  0  0
    2.7928   -2.4359    0.0000 H   0  0  0  0  0  0  0  0  0  0  0  0
   10.1078    3.5860    0.0000 H   0  0  0  0  0  0  0  0  0  0  0  0
    9.5571    4.2684    0.0000 H   0  0  0  0  0  0  0  0  0  0  0  0
    8.8748    3.7177    0.0000 H   0  0  0  0  0  0  0  0  0  0  0  0
    7.7867   -1.2316    0.0000 H   0  0  0  0  0  0  0  0  0  0  0  0
    8.6530   -1.0959    0.0000 H   0  0  0  0  0  0  0  0  0  0  0  0
    8.5173   -0.2297    0.0000 H   0  0  0  0  0  0  0  0  0  0  0  0
   10.3380    0.5072    0.0000 H   0  0  0  0  0  0  0  0  0  0  0  0
   10.6536    1.3252    0.0000 H   0  0  0  0  0  0  0  0  0  0  0  0
    9.8356    1.6408    0.0000 H   0  0  0  0  0  0  0  0  0  0  0  0
    3.7993   -5.5156    0.0000 H   0  0  0  0  0  0  0  0  0  0  0  0
    1.7109   -3.6416    0.0000 H   0  0  0  0  0  0  0  0  0  0  0  0
    2.2142   -5.1815    0.0000 H   0  0  0  0  0  0  0  0  0  0  0  0
  1 17  1  0  0  0  0
  1 27  1  0  0  0  0
  2 15  2  0  0  0  0
  3 24  1  0  0  0  0
  3 31  1  0  0  0  0
  4 25  1  0  0  0  0
  4 32  1  0  0  0  0
  5 26  1  0  0  0  0
  5 33  1  0  0  0  0
  6 11  1  0  0  0  0
  6 14  1  0  0  0  0
  6 17  1  0  0  0  0
  7 12  1  0  0  0  0
  7 15  1  0  0  0  0
  7 40  1  0  0  0  0
  8  9  1  0  0  0  0
  8 10  1  0  0  0  0
  8 14  2  0  0  0  0
  9 12  1  0  0  0  0
  9 13  2  0  0  0  0
 10 11  1  0  0  0  0
 10 18  2  0  0  0  0
 11 19  2  0  0  0  0
 12 37  1  0  0  0  0
 12 38  1  0  0  0  0
 13 15  1  0  0  0  0
 13 16  1  0  0  0  0
 14 39  1  0  0  0  0
 16 22  2  0  0  0  0
 16 23  1  0  0  0  0
 17 41  1  0  0  0  0
 17 42  1  0  0  0  0
 18 20  1  0  0  0  0
 18 43  1  0  0  0  0
 19 21  1  0  0  0  0
 19 44  1  0  0  0  0
 20 21  2  0  0  0  0
 20 45  1  0  0  0  0
 21 46  1  0  0  0  0
 22 25  1  0  0  0  0
 22 47  1  0  0  0  0
 23 24  2  0  0  0  0
 23 48  1  0  0  0  0
 24 26  1  0  0  0  0
 25 26  2  0  0  0  0
 27 28  1  0  0  0  0
 27 49  1  0  0  0  0
 27 50  1  0  0  0  0
 28 29  2  0  0  0  0
 28 30  1  0  0  0  0
 29 34  1  0  0  0  0
 29 51  1  0  0  0  0
 30 35  2  0  0  0  0
 30 52  1  0  0  0  0
 31 53  1  0  0  0  0
 31 54  1  0  0  0  0
 31 55  1  0  0  0  0
 32 56  1  0  0  0  0
 32 57  1  0  0  0  0
 32 58  1  0  0  0  0
 33 59  1  0  0  0  0
 33 60  1  0  0  0  0
 33 61  1  0  0  0  0
 34 36  2  0  0  0  0
 34 62  1  0  0  0  0
 35 36  1  0  0  0  0
 35 63  1  0  0  0  0
 36 64  1  0  0  0  0
M  END
> <PUBCHEM_COMPOUND_CID>
24894993

> <PUBCHEM_COMPOUND_CANONICALIZED>
1

> <PUBCHEM_CACTVS_COMPLEXITY>
768

> <PUBCHEM_CACTVS_HBOND_ACCEPTOR>
5

> <PUBCHEM_CACTVS_HBOND_DONOR>
1

> <PUBCHEM_CACTVS_ROTATABLE_BOND>
9

> <PUBCHEM_CACTVS_SUBSKEYS>
AAADceB7OAAAAAAAAAAAAAAAAAAAAWIAAAAwYMAAAAAAAFgB9AAAHgAQAAAADAzhngY+xvPMFACoAzV3VACCiCAxIiAI2KE+7NgNJ/LEtZuMMCplxhXK6QeY/P7OoAABCAACQABAAAIQAASAAAAAAAAAAA==

> <PUBCHEM_IUPAC_OPENEYE_NAME>
3-[1-(benzyloxymethyl)indol-3-yl]-4-(3,4,5-trimethoxyphenyl)-1,2-dihydropyrrol-5-one

> <PUBCHEM_IUPAC_CAS_NAME>
3-[1-(phenylmethoxymethyl)-3-indolyl]-4-(3,4,5-trimethoxyphenyl)-1,2-dihydropyrrol-5-one

> <PUBCHEM_IUPAC_NAME_MARKUP>
3-[1-(phenylmethoxymethyl)indol-3-yl]-4-(3,4,5-trimethoxyphenyl)-1,2-dihydropyrrol-5-one

> <PUBCHEM_IUPAC_NAME>
3-[1-(phenylmethoxymethyl)indol-3-yl]-4-(3,4,5-trimethoxyphenyl)-1,2-dihydropyrrol-5-one

> <PUBCHEM_IUPAC_SYSTEMATIC_NAME>
3-[1-(phenylmethoxymethyl)indol-3-yl]-4-(3,4,5-trimethoxyphenyl)-1,2-dihydropyrrol-5-one

> <PUBCHEM_IUPAC_TRADITIONAL_NAME>
4-[1-(benzoxymethyl)indol-3-yl]-3-(3,4,5-trimethoxyphenyl)-3-pyrrolin-2-one

> <PUBCHEM_IUPAC_INCHI>
InChI=1S/C29H28N2O5/c1-33-25-13-20(14-26(34-2)28(25)35-3)27-22(15-30-29(27)32)23-16-31(24-12-8-7-11-21(23)24)18-36-17-19-9-5-4-6-10-19/h4-14,16H,15,17-18H2,1-3H3,(H,30,32)

> <PUBCHEM_IUPAC_INCHIKEY>
PRGQUWCDXPFMCG-UHFFFAOYSA-N

> <PUBCHEM_XLOGP3_AA>
3.8

> <PUBCHEM_EXACT_MASS>
484.19982200

> <PUBCHEM_MOLECULAR_FORMULA>
C29H28N2O5

> <PUBCHEM_MOLECULAR_WEIGHT>
484.5

> <PUBCHEM_SMILES>
COC1=CC(=CC(=C1OC)OC)C2=C(CNC2=O)C3=CN(C4=CC=CC=C43)COCC5=CC=CC=C5

> <PUBCHEM_OPENEYE_CAN_SMILES>
COC1=CC(=CC(=C1OC)OC)C2=C(CNC2=O)C3=CN(C4=CC=CC=C43)COCC5=CC=CC=C5

> <PUBCHEM_OPENEYE_ISO_SMILES>
COC1=CC(=CC(=C1OC)OC)C2=C(CNC2=O)C3=CN(C4=CC=CC=C43)COCC5=CC=CC=C5

> <PUBCHEM_CACTVS_TPSA>
71

> <PUBCHEM_MONOISOTOPIC_WEIGHT>
484.19982200

> <PUBCHEM_TOTAL_CHARGE>
0

> <PUBCHEM_HEAVY_ATOM_COUNT>
36

> <PUBCHEM_ATOM_DEF_STEREO_COUNT>
0

> <PUBCHEM_ATOM_UDEF_STEREO_COUNT>
0

> <PUBCHEM_BOND_DEF_STEREO_COUNT>
0

> <PUBCHEM_BOND_UDEF_STEREO_COUNT>
0

> <PUBCHEM_ISOTOPIC_ATOM_COUNT>
0

> <PUBCHEM_COMPONENT_COUNT>
1

> <PUBCHEM_CACTVS_TAUTO_COUNT>
-1

> <PUBCHEM_COORDINATE_TYPE>
1
5
255

> <PUBCHEM_BONDANNOTATIONS>
10  11  8
10  18  8
11  19  8
16  22  8
16  23  8
18  20  8
19  21  8
20  21  8
22  25  8
23  24  8
24  26  8
25  26  8
28  29  8
28  30  8
29  34  8
30  35  8
34  36  8
35  36  8
6  11  8
6  14  8
8  10  8
8  14  8

$$$$
