49831029
  -OEChem-03202501412D

 27 29  0     0  0  0  0  0  0999 V2000
    8.9942    0.2915    0.0000 O   0  0  0  0  0  0  0  0  0  0  0  0
    7.2241   -1.7673    0.0000 N   0  0  0  0  0  0  0  0  0  0  0  0
    2.0000    1.2673    0.0000 N   0  0  0  0  0  0  0  0  0  0  0  0
    4.5981   -0.2327    0.0000 C   0  0  0  0  0  0  0  0  0  0  0  0
    6.3301   -0.2327    0.0000 C   0  0  0  0  0  0  0  0  0  0  0  0
    5.4641    0.2673    0.0000 C   0  0  0  0  0  0  0  0  0  0  0  0
    6.3301   -1.2327    0.0000 C   0  0  0  0  0  0  0  0  0  0  0  0
    3.7320    0.2673    0.0000 C   0  0  0  0  0  0  0  0  0  0  0  0
    4.5981   -1.2327    0.0000 C   0  0  0  0  0  0  0  0  0  0  0  0
    5.4641   -1.7327    0.0000 C   0  0  0  0  0  0  0  0  0  0  0  0
    7.2241    0.3020    0.0000 C   0  0  0  0  0  0  0  0  0  0  0  0
    8.1301   -0.2119    0.0000 C   0  0  0  0  0  0  0  0  0  0  0  0
    2.8660   -0.2327    0.0000 C   0  0  0  0  0  0  0  0  0  0  0  0
    3.7320    1.2673    0.0000 C   0  0  0  0  0  0  0  0  0  0  0  0
    8.1301   -1.2535    0.0000 C   0  0  0  0  0  0  0  0  0  0  0  0
    2.0000    0.2673    0.0000 C   0  0  0  0  0  0  0  0  0  0  0  0
    2.8660    1.7673    0.0000 C   0  0  0  0  0  0  0  0  0  0  0  0
    5.4641    0.8873    0.0000 H   0  0  0  0  0  0  0  0  0  0  0  0
    4.0611   -1.5427    0.0000 H   0  0  0  0  0  0  0  0  0  0  0  0
    5.4641   -2.3527    0.0000 H   0  0  0  0  0  0  0  0  0  0  0  0
    7.2169    0.9220    0.0000 H   0  0  0  0  0  0  0  0  0  0  0  0
    2.8660   -0.8527    0.0000 H   0  0  0  0  0  0  0  0  0  0  0  0
    4.2690    1.5773    0.0000 H   0  0  0  0  0  0  0  0  0  0  0  0
    8.6659   -1.5656    0.0000 H   0  0  0  0  0  0  0  0  0  0  0  0
    1.4631   -0.0427    0.0000 H   0  0  0  0  0  0  0  0  0  0  0  0
    2.8660    2.3873    0.0000 H   0  0  0  0  0  0  0  0  0  0  0  0
    9.5323   -0.0164    0.0000 H   0  0  0  0  0  0  0  0  0  0  0  0
  1 12  1  0  0  0  0
  1 27  1  0  0  0  0
  2  7  2  0  0  0  0
  2 15  1  0  0  0  0
  3 16  2  0  0  0  0
  3 17  1  0  0  0  0
  4  6  2  0  0  0  0
  4  8  1  0  0  0  0
  4  9  1  0  0  0  0
  5  6  1  0  0  0  0
  5  7  1  0  0  0  0
  5 11  2  0  0  0  0
  6 18  1  0  0  0  0
  7 10  1  0  0  0  0
  8 13  2  0  0  0  0
  8 14  1  0  0  0  0
  9 10  2  0  0  0  0
  9 19  1  0  0  0  0
 10 20  1  0  0  0  0
 11 12  1  0  0  0  0
 11 21  1  0  0  0  0
 12 15  2  0  0  0  0
 13 16  1  0  0  0  0
 13 22  1  0  0  0  0
 14 17  2  0  0  0  0
 14 23  1  0  0  0  0
 15 24  1  0  0  0  0
 16 25  1  0  0  0  0
 17 26  1  0  0  0  0
M  END
> <PUBCHEM_COMPOUND_CID>
49831029

> <PUBCHEM_COMPOUND_CANONICALIZED>
1

> <PUBCHEM_CACTVS_COMPLEXITY>
253

> <PUBCHEM_CACTVS_HBOND_ACCEPTOR>
3

> <PUBCHEM_CACTVS_HBOND_DONOR>
1

> <PUBCHEM_CACTVS_ROTATABLE_BOND>
1

> <PUBCHEM_CACTVS_SUBSKEYS>
AAADccBzIAAAAAAAAAAAAAAAAAAAAAAAAAA8WIAAAAAAAACx/AAAHgAACAAADAzBngQ8xvIIEgCgAzRnRASCgCAxYiAI2CA/bJgKJuLSkZOEcAhkwBHY2AewwPAOiAACAAACAAAQAAQAAAQAAAAAAAAAAA==

> <PUBCHEM_IUPAC_OPENEYE_NAME>
6-(4-pyridyl)quinolin-3-ol

> <PUBCHEM_IUPAC_CAS_NAME>
6-pyridin-4-yl-3-quinolinol

> <PUBCHEM_IUPAC_NAME_MARKUP>
6-pyridin-4-ylquinolin-3-ol

> <PUBCHEM_IUPAC_NAME>
6-pyridin-4-ylquinolin-3-ol

> <PUBCHEM_IUPAC_SYSTEMATIC_NAME>
6-pyridin-4-ylquinolin-3-ol

> <PUBCHEM_IUPAC_TRADITIONAL_NAME>
6-(4-pyridyl)quinolin-3-ol

> <PUBCHEM_IUPAC_INCHI>
InChI=1S/C14H10N2O/c17-13-8-12-7-11(1-2-14(12)16-9-13)10-3-5-15-6-4-10/h1-9,17H

> <PUBCHEM_IUPAC_INCHIKEY>
GKODJBVKKLQMEY-UHFFFAOYSA-N

> <PUBCHEM_XLOGP3_AA>
2.4

> <PUBCHEM_EXACT_MASS>
222.079312947

> <PUBCHEM_MOLECULAR_FORMULA>
C14H10N2O

> <PUBCHEM_MOLECULAR_WEIGHT>
222.24

> <PUBCHEM_SMILES>
C1=CC2=NC=C(C=C2C=C1C3=CC=NC=C3)O

> <PUBCHEM_OPENEYE_CAN_SMILES>
C1=CC2=NC=C(C=C2C=C1C3=CC=NC=C3)O

> <PUBCHEM_OPENEYE_ISO_SMILES>
C1=CC2=NC=C(C=C2C=C1C3=CC=NC=C3)O

> <PUBCHEM_CACTVS_TPSA>
46

> <PUBCHEM_MONOISOTOPIC_WEIGHT>
222.079312947

> <PUBCHEM_TOTAL_CHARGE>
0

> <PUBCHEM_HEAVY_ATOM_COUNT>
17

> <PUBCHEM_ATOM_DEF_STEREO_COUNT>
0

> <PUBCHEM_ATOM_UDEF_STEREO_COUNT>
0

> <PUBCHEM_BOND_DEF_STEREO_COUNT>
0

> <PUBCHEM_BOND_UDEF_STEREO_COUNT>
0

> <PUBCHEM_ISOTOPIC_ATOM_COUNT>
0

> <PUBCHEM_COMPONENT_COUNT>
1

> <PUBCHEM_CACTVS_TAUTO_COUNT>
-1

> <PUBCHEM_COORDINATE_TYPE>
1
5
255

> <PUBCHEM_BONDANNOTATIONS>
11  12  8
12  15  8
13  16  8
14  17  8
2  15  8
2  7  8
3  16  8
3  17  8
4  6  8
4  9  8
5  11  8
5  6  8
5  7  8
7  10  8
8  13  8
8  14  8
9  10  8

$$$$
