44410953
  -OEChem-03202506002D

 54 57  0     1  0  0  0  0  0999 V2000
   12.6260   -1.0474    0.0000 Cl  0  0  0  0  0  0  0  0  0  0  0  0
   10.9056   -0.0274    0.0000 F   0  0  0  0  0  0  0  0  0  0  0  0
    4.4374   -1.5268    0.0000 O   0  0  0  0  0  0  0  0  0  0  0  0
    5.6817    2.0272    0.0000 O   0  0  0  0  0  0  0  0  0  0  0  0
    4.8157    0.5272    0.0000 N   0  0  3  0  0  0  0  0  0  0  0  0
    2.7431   -1.1667    0.0000 N   0  0  0  0  0  0  0  0  0  0  0  0
    9.1737    2.0619    0.0000 N   0  0  0  0  0  0  0  0  0  0  0  0
    9.1621   -1.0074    0.0000 N   0  0  0  0  0  0  0  0  0  0  0  0
   10.0798    0.5064    0.0000 N   0  0  0  0  0  0  0  0  0  0  0  0
    3.9021    0.1205    0.0000 C   0  0  2  0  0  0  0  0  0  0  0  0
    3.2330    0.8637    0.0000 C   0  0  0  0  0  0  0  0  0  0  0  0
    4.7111    1.5218    0.0000 C   0  0  0  0  0  0  0  0  0  0  0  0
    3.7330    1.7297    0.0000 C   0  0  0  0  0  0  0  0  0  0  0  0
    5.6817    0.0272    0.0000 C   0  0  0  0  0  0  0  0  0  0  0  0
    3.6942   -0.8576    0.0000 C   0  0  0  0  0  0  0  0  0  0  0  0
    6.5477    0.5272    0.0000 C   0  0  0  0  0  0  0  0  0  0  0  0
    6.5477    1.5272    0.0000 C   0  0  0  0  0  0  0  0  0  0  0  0
    7.4137    0.0272    0.0000 C   0  0  0  0  0  0  0  0  0  0  0  0
    8.2798    0.5272    0.0000 C   0  0  0  0  0  0  0  0  0  0  0  0
    7.4137    2.0272    0.0000 C   0  0  0  0  0  0  0  0  0  0  0  0
    8.2798    1.5272    0.0000 C   0  0  0  0  0  0  0  0  0  0  0  0
    2.0000   -0.4975    0.0000 C   0  0  0  0  0  0  0  0  0  0  0  0
    9.1737   -0.0074    0.0000 C   0  0  0  0  0  0  0  0  0  0  0  0
    5.6817    3.0272    0.0000 C   0  0  0  0  0  0  0  0  0  0  0  0
   10.0798    1.5481    0.0000 C   0  0  0  0  0  0  0  0  0  0  0  0
   10.0223   -1.5173    0.0000 C   0  0  0  0  0  0  0  0  0  0  0  0
   10.8941   -1.0274    0.0000 C   0  0  0  0  0  0  0  0  0  0  0  0
   10.0108   -2.5173    0.0000 C   0  0  0  0  0  0  0  0  0  0  0  0
   11.7543   -1.5374    0.0000 C   0  0  0  0  0  0  0  0  0  0  0  0
   10.8709   -3.0272    0.0000 C   0  0  0  0  0  0  0  0  0  0  0  0
   11.7427   -2.5373    0.0000 C   0  0  0  0  0  0  0  0  0  0  0  0
    4.3839   -0.2697    0.0000 H   0  0  0  0  0  0  0  0  0  0  0  0
    2.7314    1.2281    0.0000 H   0  0  0  0  0  0  0  0  0  0  0  0
    2.8181    0.4029    0.0000 H   0  0  0  0  0  0  0  0  0  0  0  0
    5.3311    1.5218    0.0000 H   0  0  0  0  0  0  0  0  0  0  0  0
    4.7759    2.1384    0.0000 H   0  0  0  0  0  0  0  0  0  0  0  0
    3.9246    2.3193    0.0000 H   0  0  0  0  0  0  0  0  0  0  0  0
    3.1666    1.9818    0.0000 H   0  0  0  0  0  0  0  0  0  0  0  0
    5.2832   -0.4477    0.0000 H   0  0  0  0  0  0  0  0  0  0  0  0
    6.0802   -0.4477    0.0000 H   0  0  0  0  0  0  0  0  0  0  0  0
    2.6142   -1.7731    0.0000 H   0  0  0  0  0  0  0  0  0  0  0  0
    7.4137   -0.5928    0.0000 H   0  0  0  0  0  0  0  0  0  0  0  0
    7.4137    2.6472    0.0000 H   0  0  0  0  0  0  0  0  0  0  0  0
    2.4149   -0.0368    0.0000 H   0  0  0  0  0  0  0  0  0  0  0  0
    1.5392   -0.0827    0.0000 H   0  0  0  0  0  0  0  0  0  0  0  0
    1.5851   -0.9583    0.0000 H   0  0  0  0  0  0  0  0  0  0  0  0
    8.6216   -1.3111    0.0000 H   0  0  0  0  0  0  0  0  0  0  0  0
    6.3017    3.0272    0.0000 H   0  0  0  0  0  0  0  0  0  0  0  0
    5.6817    3.6472    0.0000 H   0  0  0  0  0  0  0  0  0  0  0  0
    5.0617    3.0272    0.0000 H   0  0  0  0  0  0  0  0  0  0  0  0
   10.6155    1.8601    0.0000 H   0  0  0  0  0  0  0  0  0  0  0  0
    9.4703   -2.8210    0.0000 H   0  0  0  0  0  0  0  0  0  0  0  0
   10.8638   -3.6472    0.0000 H   0  0  0  0  0  0  0  0  0  0  0  0
   12.2760   -2.8535    0.0000 H   0  0  0  0  0  0  0  0  0  0  0  0
  1 29  1  0  0  0  0
  2 27  1  0  0  0  0
  3 15  2  0  0  0  0
  4 17  1  0  0  0  0
  4 24  1  0  0  0  0
  5 10  1  0  0  0  0
  5 12  1  0  0  0  0
  5 14  1  0  0  0  0
  6 15  1  0  0  0  0
  6 22  1  0  0  0  0
  6 41  1  0  0  0  0
  7 21  1  0  0  0  0
  7 25  2  0  0  0  0
  8 23  1  0  0  0  0
  8 26  1  0  0  0  0
  8 47  1  0  0  0  0
  9 23  2  0  0  0  0
  9 25  1  0  0  0  0
 10 11  1  0  0  0  0
 10 15  1  1  0  0  0
 10 32  1  0  0  0  0
 11 13  1  0  0  0  0
 11 33  1  0  0  0  0
 11 34  1  0  0  0  0
 12 13  1  0  0  0  0
 12 35  1  0  0  0  0
 12 36  1  0  0  0  0
 13 37  1  0  0  0  0
 13 38  1  0  0  0  0
 14 16  1  0  0  0  0
 14 39  1  0  0  0  0
 14 40  1  0  0  0  0
 16 17  1  0  0  0  0
 16 18  2  0  0  0  0
 17 20  2  0  0  0  0
 18 19  1  0  0  0  0
 18 42  1  0  0  0  0
 19 21  2  0  0  0  0
 19 23  1  0  0  0  0
 20 21  1  0  0  0  0
 20 43  1  0  0  0  0
 22 44  1  0  0  0  0
 22 45  1  0  0  0  0
 22 46  1  0  0  0  0
 24 48  1  0  0  0  0
 24 49  1  0  0  0  0
 24 50  1  0  0  0  0
 25 51  1  0  0  0  0
 26 27  2  0  0  0  0
 26 28  1  0  0  0  0
 27 29  1  0  0  0  0
 28 30  2  0  0  0  0
 28 52  1  0  0  0  0
 29 31  2  0  0  0  0
 30 31  1  0  0  0  0
 30 53  1  0  0  0  0
 31 54  1  0  0  0  0
M  END
> <PUBCHEM_COMPOUND_CID>
44410953

> <PUBCHEM_COMPOUND_CANONICALIZED>
1

> <PUBCHEM_CACTVS_COMPLEXITY>
616

> <PUBCHEM_CACTVS_HBOND_ACCEPTOR>
7

> <PUBCHEM_CACTVS_HBOND_DONOR>
2

> <PUBCHEM_CACTVS_ROTATABLE_BOND>
6

> <PUBCHEM_CACTVS_SUBSKEYS>
AAADceB7sQAEAAAAAAAAAAAAAAAAAWAAAAA8YIAAAAAAAACx9AAAHwIQAAAADC7Bni439vfIFACoAydzdACCiCkxJ6AJ2KG+bpiMbvLF+/uUNChu0hvI6CeY0WMOKAACAgIKAABQAAQEBBQAAAAAAAAAAA==

> <PUBCHEM_IUPAC_OPENEYE_NAME>
(2R)-1-[[4-(3-chloro-2-fluoro-anilino)-7-methoxy-quinazolin-6-yl]methyl]-N-methyl-pyrrolidine-2-carboxamide

> <PUBCHEM_IUPAC_CAS_NAME>
(2R)-1-[[4-(3-chloro-2-fluoroanilino)-7-methoxy-6-quinazolinyl]methyl]-N-methyl-2-pyrrolidinecarboxamide

> <PUBCHEM_IUPAC_NAME_MARKUP>
(2<I>R</I>)-1-[[4-(3-chloro-2-fluoroanilino)-7-methoxyquinazolin-6-yl]methyl]-<I>N</I>-methylpyrrolidine-2-carboxamide

> <PUBCHEM_IUPAC_NAME>
(2R)-1-[[4-(3-chloro-2-fluoroanilino)-7-methoxyquinazolin-6-yl]methyl]-N-methylpyrrolidine-2-carboxamide

> <PUBCHEM_IUPAC_SYSTEMATIC_NAME>
(2R)-1-[[4-[(3-chloranyl-2-fluoranyl-phenyl)amino]-7-methoxy-quinazolin-6-yl]methyl]-N-methyl-pyrrolidine-2-carboxamide

> <PUBCHEM_IUPAC_TRADITIONAL_NAME>
(2R)-1-[[4-(3-chloro-2-fluoro-anilino)-7-methoxy-quinazolin-6-yl]methyl]-N-methyl-pyrrolidine-2-carboxamide

> <PUBCHEM_IUPAC_INCHI>
InChI=1S/C22H23ClFN5O2/c1-25-22(30)18-7-4-8-29(18)11-13-9-14-17(10-19(13)31-2)26-12-27-21(14)28-16-6-3-5-15(23)20(16)24/h3,5-6,9-10,12,18H,4,7-8,11H2,1-2H3,(H,25,30)(H,26,27,28)/t18-/m1/s1

> <PUBCHEM_IUPAC_INCHIKEY>
QMGNNNRCEMYKNG-GOSISDBHSA-N

> <PUBCHEM_XLOGP3_AA>
3.8

> <PUBCHEM_EXACT_MASS>
443.1524308

> <PUBCHEM_MOLECULAR_FORMULA>
C22H23ClFN5O2

> <PUBCHEM_MOLECULAR_WEIGHT>
443.9

> <PUBCHEM_SMILES>
CNC(=O)[C@H]1CCCN1CC2=CC3=C(C=C2OC)N=CN=C3NC4=C(C(=CC=C4)Cl)F

> <PUBCHEM_OPENEYE_CAN_SMILES>
CNC(=O)C1CCCN1CC2=CC3=C(C=C2OC)N=CN=C3NC4=C(C(=CC=C4)Cl)F

> <PUBCHEM_OPENEYE_ISO_SMILES>
CNC(=O)[C@H]1CCCN1CC2=CC3=C(C=C2OC)N=CN=C3NC4=C(C(=CC=C4)Cl)F

> <PUBCHEM_CACTVS_TPSA>
79.4

> <PUBCHEM_MONOISOTOPIC_WEIGHT>
443.1524308

> <PUBCHEM_TOTAL_CHARGE>
0

> <PUBCHEM_HEAVY_ATOM_COUNT>
31

> <PUBCHEM_ATOM_DEF_STEREO_COUNT>
1

> <PUBCHEM_ATOM_UDEF_STEREO_COUNT>
0

> <PUBCHEM_BOND_DEF_STEREO_COUNT>
0

> <PUBCHEM_BOND_UDEF_STEREO_COUNT>
0

> <PUBCHEM_ISOTOPIC_ATOM_COUNT>
0

> <PUBCHEM_COMPONENT_COUNT>
1

> <PUBCHEM_CACTVS_TAUTO_COUNT>
-1

> <PUBCHEM_COORDINATE_TYPE>
1
5
255

> <PUBCHEM_BONDANNOTATIONS>
10  15  5
16  17  8
16  18  8
17  20  8
18  19  8
19  21  8
19  23  8
20  21  8
26  27  8
26  28  8
27  29  8
28  30  8
29  31  8
30  31  8
7  21  8
7  25  8
9  23  8
9  25  8

$$$$
