136027065
  -OEChem-03202502232D

 51 54  0     0  0  0  0  0  0999 V2000
    6.3301    2.2745    0.0000 O   0  0  0  0  0  0  0  0  0  0  0  0
    5.4641    0.7745    0.0000 N   0  0  0  0  0  0  0  0  0  0  0  0
    9.8744    1.0792    0.0000 N   0  0  0  0  0  0  0  0  0  0  0  0
    9.8744   -0.5303    0.0000 N   0  0  0  0  0  0  0  0  0  0  0  0
   12.9879   -0.2255    0.0000 N   0  0  0  0  0  0  0  0  0  0  0  0
   12.0416   -0.5303    0.0000 N   0  0  0  0  0  0  0  0  0  0  0  0
    4.5981   -2.7255    0.0000 N   0  0  0  0  0  0  0  0  0  0  0  0
    4.5981    1.2745    0.0000 C   0  0  0  0  0  0  0  0  0  0  0  0
    3.7320    0.7745    0.0000 C   0  0  0  0  0  0  0  0  0  0  0  0
    5.4641   -0.2255    0.0000 C   0  0  0  0  0  0  0  0  0  0  0  0
    6.3301    1.2745    0.0000 C   0  0  0  0  0  0  0  0  0  0  0  0
    7.1962    0.7745    0.0000 C   0  0  0  0  0  0  0  0  0  0  0  0
    2.8660    1.2745    0.0000 C   0  0  0  0  0  0  0  0  0  0  0  0
    8.9282    0.7745    0.0000 C   0  0  0  0  0  0  0  0  0  0  0  0
    8.9282   -0.2255    0.0000 C   0  0  0  0  0  0  0  0  0  0  0  0
    8.0622    1.2745    0.0000 C   0  0  0  0  0  0  0  0  0  0  0  0
   10.4580    0.2745    0.0000 C   0  0  0  0  0  0  0  0  0  0  0  0
   11.4580    0.2745    0.0000 C   0  0  0  0  0  0  0  0  0  0  0  0
    7.1962   -0.2255    0.0000 C   0  0  0  0  0  0  0  0  0  0  0  0
   12.0416    1.0792    0.0000 C   0  0  0  0  0  0  0  0  0  0  0  0
    8.0622   -0.7255    0.0000 C   0  0  0  0  0  0  0  0  0  0  0  0
    4.5981   -0.7255    0.0000 C   0  0  0  0  0  0  0  0  0  0  0  0
    2.0000    0.7745    0.0000 C   0  0  0  0  0  0  0  0  0  0  0  0
   12.9922    0.7685    0.0000 C   0  0  0  0  0  0  0  0  0  0  0  0
   11.8354    2.0577    0.0000 C   0  0  0  0  0  0  0  0  0  0  0  0
   13.7365    1.4364    0.0000 C   0  0  0  0  0  0  0  0  0  0  0  0
   12.5797    2.7255    0.0000 C   0  0  0  0  0  0  0  0  0  0  0  0
   13.5302    2.4149    0.0000 C   0  0  0  0  0  0  0  0  0  0  0  0
    4.5981   -1.7255    0.0000 C   0  0  0  0  0  0  0  0  0  0  0  0
    4.9966    1.7494    0.0000 H   0  0  0  0  0  0  0  0  0  0  0  0
    4.1996    1.7494    0.0000 H   0  0  0  0  0  0  0  0  0  0  0  0
    3.3335    0.2995    0.0000 H   0  0  0  0  0  0  0  0  0  0  0  0
    4.1306    0.2995    0.0000 H   0  0  0  0  0  0  0  0  0  0  0  0
    5.6762   -0.8082    0.0000 H   0  0  0  0  0  0  0  0  0  0  0  0
    6.0747   -0.1179    0.0000 H   0  0  0  0  0  0  0  0  0  0  0  0
    3.2646    1.7494    0.0000 H   0  0  0  0  0  0  0  0  0  0  0  0
    2.4675    1.7494    0.0000 H   0  0  0  0  0  0  0  0  0  0  0  0
    8.0622    1.8945    0.0000 H   0  0  0  0  0  0  0  0  0  0  0  0
   10.0670    1.6685    0.0000 H   0  0  0  0  0  0  0  0  0  0  0  0
    6.6592   -0.5355    0.0000 H   0  0  0  0  0  0  0  0  0  0  0  0
    8.0622   -1.3455    0.0000 H   0  0  0  0  0  0  0  0  0  0  0  0
    4.3860   -0.1429    0.0000 H   0  0  0  0  0  0  0  0  0  0  0  0
    3.9875   -0.8332    0.0000 H   0  0  0  0  0  0  0  0  0  0  0  0
    1.6900    1.3114    0.0000 H   0  0  0  0  0  0  0  0  0  0  0  0
    1.4631    0.4645    0.0000 H   0  0  0  0  0  0  0  0  0  0  0  0
    2.3100    0.2375    0.0000 H   0  0  0  0  0  0  0  0  0  0  0  0
   13.4882   -0.5917    0.0000 H   0  0  0  0  0  0  0  0  0  0  0  0
   11.2461    2.2503    0.0000 H   0  0  0  0  0  0  0  0  0  0  0  0
   14.3258    1.2438    0.0000 H   0  0  0  0  0  0  0  0  0  0  0  0
   12.4519    3.3322    0.0000 H   0  0  0  0  0  0  0  0  0  0  0  0
   13.9917    2.8289    0.0000 H   0  0  0  0  0  0  0  0  0  0  0  0
  1 11  2  0  0  0  0
  2  8  1  0  0  0  0
  2 10  1  0  0  0  0
  2 11  1  0  0  0  0
  3 14  1  0  0  0  0
  3 17  1  0  0  0  0
  3 39  1  0  0  0  0
  4 15  1  0  0  0  0
  4 17  2  0  0  0  0
  5  6  1  0  0  0  0
  5 24  1  0  0  0  0
  5 47  1  0  0  0  0
  6 18  2  0  0  0  0
  7 29  3  0  0  0  0
  8  9  1  0  0  0  0
  8 30  1  0  0  0  0
  8 31  1  0  0  0  0
  9 13  1  0  0  0  0
  9 32  1  0  0  0  0
  9 33  1  0  0  0  0
 10 22  1  0  0  0  0
 10 34  1  0  0  0  0
 10 35  1  0  0  0  0
 11 12  1  0  0  0  0
 12 16  2  0  0  0  0
 12 19  1  0  0  0  0
 13 23  1  0  0  0  0
 13 36  1  0  0  0  0
 13 37  1  0  0  0  0
 14 15  2  0  0  0  0
 14 16  1  0  0  0  0
 15 21  1  0  0  0  0
 16 38  1  0  0  0  0
 17 18  1  0  0  0  0
 18 20  1  0  0  0  0
 19 21  2  0  0  0  0
 19 40  1  0  0  0  0
 20 24  1  0  0  0  0
 20 25  2  0  0  0  0
 21 41  1  0  0  0  0
 22 29  1  0  0  0  0
 22 42  1  0  0  0  0
 22 43  1  0  0  0  0
 23 44  1  0  0  0  0
 23 45  1  0  0  0  0
 23 46  1  0  0  0  0
 24 26  2  0  0  0  0
 25 27  1  0  0  0  0
 25 48  1  0  0  0  0
 26 28  1  0  0  0  0
 26 49  1  0  0  0  0
 27 28  2  0  0  0  0
 27 50  1  0  0  0  0
 28 51  1  0  0  0  0
M  END
> <PUBCHEM_COMPOUND_CID>
136027065

> <PUBCHEM_COMPOUND_CANONICALIZED>
1

> <PUBCHEM_CACTVS_COMPLEXITY>
618

> <PUBCHEM_CACTVS_HBOND_ACCEPTOR>
4

> <PUBCHEM_CACTVS_HBOND_DONOR>
2

> <PUBCHEM_CACTVS_ROTATABLE_BOND>
7

> <PUBCHEM_CACTVS_SUBSKEYS>
AAADceB7oAAAAAAAAAAAAAAAAAAAAWLAAAAwYAAAAAAAAFgB/gAAHgAYAAAADAjBnwQz0PfrkAC6BydydACShC2lEqAZuSE4dNiI6LLA3dGUpQhongLIyacciYCeCAAAQAACACAQAACAAAQAQAAAAAAAAA==

> <PUBCHEM_IUPAC_OPENEYE_NAME>
N-butyl-N-(2-cyanoethyl)-2-(1H-indazol-3-yl)-3H-benzimidazole-5-carboxamide

> <PUBCHEM_IUPAC_CAS_NAME>
N-butyl-N-(2-cyanoethyl)-2-(1H-indazol-3-yl)-3H-benzimidazole-5-carboxamide

> <PUBCHEM_IUPAC_NAME_MARKUP>
<I>N</I>-butyl-<I>N</I>-(2-cyanoethyl)-2-(1<I>H</I>-indazol-3-yl)-3<I>H</I>-benzimidazole-5-carboxamide

> <PUBCHEM_IUPAC_NAME>
N-butyl-N-(2-cyanoethyl)-2-(1H-indazol-3-yl)-3H-benzimidazole-5-carboxamide

> <PUBCHEM_IUPAC_SYSTEMATIC_NAME>
N-butyl-N-(2-cyanoethyl)-2-(1H-indazol-3-yl)-3H-benzimidazole-5-carboxamide

> <PUBCHEM_IUPAC_TRADITIONAL_NAME>
N-butyl-N-(2-cyanoethyl)-2-(1H-indazol-3-yl)-3H-benzimidazole-5-carboxamide

> <PUBCHEM_IUPAC_INCHI>
InChI=1S/C22H22N6O/c1-2-3-12-28(13-6-11-23)22(29)15-9-10-18-19(14-15)25-21(24-18)20-16-7-4-5-8-17(16)26-27-20/h4-5,7-10,14H,2-3,6,12-13H2,1H3,(H,24,25)(H,26,27)

> <PUBCHEM_IUPAC_INCHIKEY>
JJGSOVIZOMZMCS-UHFFFAOYSA-N

> <PUBCHEM_XLOGP3_AA>
3.2

> <PUBCHEM_EXACT_MASS>
386.18550935

> <PUBCHEM_MOLECULAR_FORMULA>
C22H22N6O

> <PUBCHEM_MOLECULAR_WEIGHT>
386.4

> <PUBCHEM_SMILES>
CCCCN(CCC#N)C(=O)C1=CC2=C(C=C1)N=C(N2)C3=NNC4=CC=CC=C43

> <PUBCHEM_OPENEYE_CAN_SMILES>
CCCCN(CCC#N)C(=O)C1=CC2=C(C=C1)N=C(N2)C3=NNC4=CC=CC=C43

> <PUBCHEM_OPENEYE_ISO_SMILES>
CCCCN(CCC#N)C(=O)C1=CC2=C(C=C1)N=C(N2)C3=NNC4=CC=CC=C43

> <PUBCHEM_CACTVS_TPSA>
101

> <PUBCHEM_MONOISOTOPIC_WEIGHT>
386.18550935

> <PUBCHEM_TOTAL_CHARGE>
0

> <PUBCHEM_HEAVY_ATOM_COUNT>
29

> <PUBCHEM_ATOM_DEF_STEREO_COUNT>
0

> <PUBCHEM_ATOM_UDEF_STEREO_COUNT>
0

> <PUBCHEM_BOND_DEF_STEREO_COUNT>
0

> <PUBCHEM_BOND_UDEF_STEREO_COUNT>
0

> <PUBCHEM_ISOTOPIC_ATOM_COUNT>
0

> <PUBCHEM_COMPONENT_COUNT>
1

> <PUBCHEM_CACTVS_TAUTO_COUNT>
-1

> <PUBCHEM_COORDINATE_TYPE>
1
5
255

> <PUBCHEM_BONDANNOTATIONS>
12  16  8
12  19  8
14  15  8
14  16  8
15  21  8
18  20  8
19  21  8
20  24  8
20  25  8
24  26  8
25  27  8
26  28  8
27  28  8
3  14  8
3  17  8
4  15  8
4  17  8
5  24  8
5  6  8
6  18  8

$$$$
