44611456
  -OEChem-03202504102D

 43 44  0     0  0  0  0  0  0999 V2000
    3.4030    1.0950    0.0000 S   0  0  0  0  0  0  0  0  0  0  0  0
   12.0632   -0.9050    0.0000 O   0  0  0  0  0  0  0  0  0  0  0  0
    2.9030    0.2290    0.0000 O   0  0  0  0  0  0  0  0  0  0  0  0
    3.9030    1.9610    0.0000 O   0  0  0  0  0  0  0  0  0  0  0  0
    8.5991   -1.9050    0.0000 O   0  0  0  0  0  0  0  0  0  0  0  0
    7.7331   -0.4050    0.0000 N   0  0  0  0  0  0  0  0  0  0  0  0
   10.3312   -0.9050    0.0000 N   0  0  0  0  0  0  0  0  0  0  0  0
    2.5369    1.5950    0.0000 N   0  0  0  0  0  0  0  0  0  0  0  0
   10.3312    2.0950    0.0000 N   0  0  0  0  0  0  0  0  0  0  0  0
   12.9292    1.5950    0.0000 N   0  0  0  0  0  0  0  0  0  0  0  0
    6.0010   -0.4050    0.0000 C   0  0  0  0  0  0  0  0  0  0  0  0
    6.8671   -0.9050    0.0000 C   0  0  0  0  0  0  0  0  0  0  0  0
    4.2690    0.5950    0.0000 C   0  0  0  0  0  0  0  0  0  0  0  0
    6.0010    0.5950    0.0000 C   0  0  0  0  0  0  0  0  0  0  0  0
    5.1350   -0.9050    0.0000 C   0  0  0  0  0  0  0  0  0  0  0  0
    5.1350    1.0950    0.0000 C   0  0  0  0  0  0  0  0  0  0  0  0
    4.2690   -0.4050    0.0000 C   0  0  0  0  0  0  0  0  0  0  0  0
    9.4651   -0.4050    0.0000 C   0  0  0  0  0  0  0  0  0  0  0  0
    8.5991   -0.9050    0.0000 C   0  0  0  0  0  0  0  0  0  0  0  0
    9.4651    0.5950    0.0000 C   0  0  0  0  0  0  0  0  0  0  0  0
   10.3312    1.0950    0.0000 C   0  0  0  0  0  0  0  0  0  0  0  0
   11.1972   -0.4050    0.0000 C   0  0  0  0  0  0  0  0  0  0  0  0
   11.1972    0.5950    0.0000 C   0  0  0  0  0  0  0  0  0  0  0  0
   12.0632   -1.9050    0.0000 C   0  0  0  0  0  0  0  0  0  0  0  0
   12.9292   -2.4050    0.0000 C   0  0  0  0  0  0  0  0  0  0  0  0
   12.0632    1.0950    0.0000 C   0  0  0  0  0  0  0  0  0  0  0  0
    6.4685   -1.3800    0.0000 H   0  0  0  0  0  0  0  0  0  0  0  0
    7.2656   -1.3800    0.0000 H   0  0  0  0  0  0  0  0  0  0  0  0
    6.5380    0.9050    0.0000 H   0  0  0  0  0  0  0  0  0  0  0  0
    5.1350   -1.5250    0.0000 H   0  0  0  0  0  0  0  0  0  0  0  0
    5.1350    1.7150    0.0000 H   0  0  0  0  0  0  0  0  0  0  0  0
    3.7320   -0.7150    0.0000 H   0  0  0  0  0  0  0  0  0  0  0  0
    7.7331    0.2150    0.0000 H   0  0  0  0  0  0  0  0  0  0  0  0
    8.9282    0.9050    0.0000 H   0  0  0  0  0  0  0  0  0  0  0  0
    2.0000    1.2850    0.0000 H   0  0  0  0  0  0  0  0  0  0  0  0
    2.5369    2.2150    0.0000 H   0  0  0  0  0  0  0  0  0  0  0  0
   11.4526   -1.7973    0.0000 H   0  0  0  0  0  0  0  0  0  0  0  0
   11.8512   -2.4876    0.0000 H   0  0  0  0  0  0  0  0  0  0  0  0
    9.7942    2.4050    0.0000 H   0  0  0  0  0  0  0  0  0  0  0  0
   10.8681    2.4050    0.0000 H   0  0  0  0  0  0  0  0  0  0  0  0
   12.6192   -2.9419    0.0000 H   0  0  0  0  0  0  0  0  0  0  0  0
   13.4662   -2.7150    0.0000 H   0  0  0  0  0  0  0  0  0  0  0  0
   13.2392   -1.8681    0.0000 H   0  0  0  0  0  0  0  0  0  0  0  0
  1  3  2  0  0  0  0
  1  4  2  0  0  0  0
  1  8  1  0  0  0  0
  1 13  1  0  0  0  0
  2 22  1  0  0  0  0
  2 24  1  0  0  0  0
  5 19  2  0  0  0  0
  6 12  1  0  0  0  0
  6 19  1  0  0  0  0
  6 33  1  0  0  0  0
  7 18  2  0  0  0  0
  7 22  1  0  0  0  0
  8 35  1  0  0  0  0
  8 36  1  0  0  0  0
  9 21  1  0  0  0  0
  9 39  1  0  0  0  0
  9 40  1  0  0  0  0
 10 26  3  0  0  0  0
 11 12  1  0  0  0  0
 11 14  2  0  0  0  0
 11 15  1  0  0  0  0
 12 27  1  0  0  0  0
 12 28  1  0  0  0  0
 13 16  2  0  0  0  0
 13 17  1  0  0  0  0
 14 16  1  0  0  0  0
 14 29  1  0  0  0  0
 15 17  2  0  0  0  0
 15 30  1  0  0  0  0
 16 31  1  0  0  0  0
 17 32  1  0  0  0  0
 18 19  1  0  0  0  0
 18 20  1  0  0  0  0
 20 21  2  0  0  0  0
 20 34  1  0  0  0  0
 21 23  1  0  0  0  0
 22 23  2  0  0  0  0
 23 26  1  0  0  0  0
 24 25  1  0  0  0  0
 24 37  1  0  0  0  0
 24 38  1  0  0  0  0
 25 41  1  0  0  0  0
 25 42  1  0  0  0  0
 25 43  1  0  0  0  0
M  END
> <PUBCHEM_COMPOUND_CID>
44611456

> <PUBCHEM_COMPOUND_CANONICALIZED>
1

> <PUBCHEM_CACTVS_COMPLEXITY>
633

> <PUBCHEM_CACTVS_HBOND_ACCEPTOR>
8

> <PUBCHEM_CACTVS_HBOND_DONOR>
3

> <PUBCHEM_CACTVS_ROTATABLE_BOND>
6

> <PUBCHEM_CACTVS_SUBSKEYS>
AAADceB7uABAAAAAAAAAAAAAAAAAAAAAAAA8QAAAAAAAAAABwAAAHgQQQAAADAjh3gYyxZLIFAK4ByVyVHDiiDAnIiAImLm8bNgM5nLE9fuePSjm1hnI6Y+c2AEOEAAAAAAAAAAgAAAAAAAAAAAAAAAAAA==

> <PUBCHEM_IUPAC_OPENEYE_NAME>
4-amino-5-cyano-6-ethoxy-N-[(4-sulfamoylphenyl)methyl]pyridine-2-carboxamide

> <PUBCHEM_IUPAC_CAS_NAME>
4-amino-5-cyano-6-ethoxy-N-[(4-sulfamoylphenyl)methyl]-2-pyridinecarboxamide

> <PUBCHEM_IUPAC_NAME_MARKUP>
4-amino-5-cyano-6-ethoxy-<I>N</I>-[(4-sulfamoylphenyl)methyl]pyridine-2-carboxamide

> <PUBCHEM_IUPAC_NAME>
4-amino-5-cyano-6-ethoxy-N-[(4-sulfamoylphenyl)methyl]pyridine-2-carboxamide

> <PUBCHEM_IUPAC_SYSTEMATIC_NAME>
4-azanyl-5-cyano-6-ethoxy-N-[(4-sulfamoylphenyl)methyl]pyridine-2-carboxamide

> <PUBCHEM_IUPAC_TRADITIONAL_NAME>
4-amino-5-cyano-6-ethoxy-N-(4-sulfamoylbenzyl)picolinamide

> <PUBCHEM_IUPAC_INCHI>
InChI=1S/C16H17N5O4S/c1-2-25-16-12(8-17)13(18)7-14(21-16)15(22)20-9-10-3-5-11(6-4-10)26(19,23)24/h3-7H,2,9H2,1H3,(H2,18,21)(H,20,22)(H2,19,23,24)

> <PUBCHEM_IUPAC_INCHIKEY>
IYHNFVWLUSPIBF-UHFFFAOYSA-N

> <PUBCHEM_XLOGP3_AA>
0.8

> <PUBCHEM_EXACT_MASS>
375.10012521

> <PUBCHEM_MOLECULAR_FORMULA>
C16H17N5O4S

> <PUBCHEM_MOLECULAR_WEIGHT>
375.4

> <PUBCHEM_SMILES>
CCOC1=C(C(=CC(=N1)C(=O)NCC2=CC=C(C=C2)S(=O)(=O)N)N)C#N

> <PUBCHEM_OPENEYE_CAN_SMILES>
CCOC1=C(C(=CC(=N1)C(=O)NCC2=CC=C(C=C2)S(=O)(=O)N)N)C#N

> <PUBCHEM_OPENEYE_ISO_SMILES>
CCOC1=C(C(=CC(=N1)C(=O)NCC2=CC=C(C=C2)S(=O)(=O)N)N)C#N

> <PUBCHEM_CACTVS_TPSA>
170

> <PUBCHEM_MONOISOTOPIC_WEIGHT>
375.10012521

> <PUBCHEM_TOTAL_CHARGE>
0

> <PUBCHEM_HEAVY_ATOM_COUNT>
26

> <PUBCHEM_ATOM_DEF_STEREO_COUNT>
0

> <PUBCHEM_ATOM_UDEF_STEREO_COUNT>
0

> <PUBCHEM_BOND_DEF_STEREO_COUNT>
0

> <PUBCHEM_BOND_UDEF_STEREO_COUNT>
0

> <PUBCHEM_ISOTOPIC_ATOM_COUNT>
0

> <PUBCHEM_COMPONENT_COUNT>
1

> <PUBCHEM_CACTVS_TAUTO_COUNT>
-1

> <PUBCHEM_COORDINATE_TYPE>
1
5
255

> <PUBCHEM_BONDANNOTATIONS>
11  14  8
11  15  8
13  16  8
13  17  8
14  16  8
15  17  8
18  20  8
20  21  8
21  23  8
22  23  8
7  18  8
7  22  8

$$$$
