49830783
  -OEChem-03202510432D

 46 49  0     0  0  0  0  0  0999 V2000
    8.9282    0.4470    0.0000 F   0  0  0  0  0  0  0  0  0  0  0  0
    2.0000    2.4470    0.0000 F   0  0  0  0  0  0  0  0  0  0  0  0
    2.3660    3.8130    0.0000 F   0  0  0  0  0  0  0  0  0  0  0  0
    3.3660    2.0810    0.0000 F   0  0  0  0  0  0  0  0  0  0  0  0
    5.4641    1.4470    0.0000 O   0  0  0  0  0  0  0  0  0  0  0  0
    9.0084   -4.3577    0.0000 N   0  0  0  0  0  0  0  0  0  0  0  0
    9.5920   -3.5530    0.0000 N   0  0  0  0  0  0  0  0  0  0  0  0
    7.1962    1.4470    0.0000 N   0  0  0  0  0  0  0  0  0  0  0  0
    9.3191   -1.7977    0.0000 N   0  0  0  0  0  0  0  0  0  0  0  0
    6.3301    2.9470    0.0000 N   0  0  0  0  0  0  0  0  0  0  0  0
    8.0622   -3.0530    0.0000 C   0  0  0  0  0  0  0  0  0  0  0  0
    7.1962   -2.5530    0.0000 C   0  0  0  0  0  0  0  0  0  0  0  0
    8.0622   -4.0530    0.0000 C   0  0  0  0  0  0  0  0  0  0  0  0
    7.1962   -1.5530    0.0000 C   0  0  0  0  0  0  0  0  0  0  0  0
    9.0084   -2.7482    0.0000 C   0  0  0  0  0  0  0  0  0  0  0  0
    6.3301   -3.0530    0.0000 C   0  0  0  0  0  0  0  0  0  0  0  0
    7.1962   -4.5530    0.0000 C   0  0  0  0  0  0  0  0  0  0  0  0
    8.0622   -1.0530    0.0000 C   0  0  0  0  0  0  0  0  0  0  0  0
    6.3301   -1.0530    0.0000 C   0  0  0  0  0  0  0  0  0  0  0  0
    6.3301   -4.0530    0.0000 C   0  0  0  0  0  0  0  0  0  0  0  0
    7.1962    0.4470    0.0000 C   0  0  0  0  0  0  0  0  0  0  0  0
    8.0622   -0.0530    0.0000 C   0  0  0  0  0  0  0  0  0  0  0  0
    6.3301   -0.0530    0.0000 C   0  0  0  0  0  0  0  0  0  0  0  0
    5.4641    3.4470    0.0000 C   0  0  0  0  0  0  0  0  0  0  0  0
    6.3301    1.9470    0.0000 C   0  0  0  0  0  0  0  0  0  0  0  0
    3.7320    3.4470    0.0000 C   0  0  0  0  0  0  0  0  0  0  0  0
    4.5981    2.9470    0.0000 C   0  0  0  0  0  0  0  0  0  0  0  0
    5.4641    4.4470    0.0000 C   0  0  0  0  0  0  0  0  0  0  0  0
    3.7320    4.4470    0.0000 C   0  0  0  0  0  0  0  0  0  0  0  0
    4.5981    4.9470    0.0000 C   0  0  0  0  0  0  0  0  0  0  0  0
    2.8660    2.9470    0.0000 C   0  0  0  0  0  0  0  0  0  0  0  0
    5.7932   -2.7430    0.0000 H   0  0  0  0  0  0  0  0  0  0  0  0
    7.1962   -5.1730    0.0000 H   0  0  0  0  0  0  0  0  0  0  0  0
    8.5991   -1.3630    0.0000 H   0  0  0  0  0  0  0  0  0  0  0  0
    5.7932   -1.3630    0.0000 H   0  0  0  0  0  0  0  0  0  0  0  0
    5.7932   -4.3630    0.0000 H   0  0  0  0  0  0  0  0  0  0  0  0
    9.2010   -4.9470    0.0000 H   0  0  0  0  0  0  0  0  0  0  0  0
    5.7932    0.2570    0.0000 H   0  0  0  0  0  0  0  0  0  0  0  0
    7.7331    1.7570    0.0000 H   0  0  0  0  0  0  0  0  0  0  0  0
    9.9257   -1.6699    0.0000 H   0  0  0  0  0  0  0  0  0  0  0  0
    8.9050   -1.3362    0.0000 H   0  0  0  0  0  0  0  0  0  0  0  0
    4.5981    2.3270    0.0000 H   0  0  0  0  0  0  0  0  0  0  0  0
    6.8671    3.2570    0.0000 H   0  0  0  0  0  0  0  0  0  0  0  0
    6.0010    4.7570    0.0000 H   0  0  0  0  0  0  0  0  0  0  0  0
    3.1951    4.7570    0.0000 H   0  0  0  0  0  0  0  0  0  0  0  0
    4.5981    5.5670    0.0000 H   0  0  0  0  0  0  0  0  0  0  0  0
  1 22  1  0  0  0  0
  2 31  1  0  0  0  0
  3 31  1  0  0  0  0
  4 31  1  0  0  0  0
  5 25  2  0  0  0  0
  6  7  1  0  0  0  0
  6 13  1  0  0  0  0
  6 37  1  0  0  0  0
  7 15  2  0  0  0  0
  8 21  1  0  0  0  0
  8 25  1  0  0  0  0
  8 39  1  0  0  0  0
  9 15  1  0  0  0  0
  9 40  1  0  0  0  0
  9 41  1  0  0  0  0
 10 24  1  0  0  0  0
 10 25  1  0  0  0  0
 10 43  1  0  0  0  0
 11 12  2  0  0  0  0
 11 13  1  0  0  0  0
 11 15  1  0  0  0  0
 12 14  1  0  0  0  0
 12 16  1  0  0  0  0
 13 17  2  0  0  0  0
 14 18  2  0  0  0  0
 14 19  1  0  0  0  0
 16 20  2  0  0  0  0
 16 32  1  0  0  0  0
 17 20  1  0  0  0  0
 17 33  1  0  0  0  0
 18 22  1  0  0  0  0
 18 34  1  0  0  0  0
 19 23  2  0  0  0  0
 19 35  1  0  0  0  0
 20 36  1  0  0  0  0
 21 22  2  0  0  0  0
 21 23  1  0  0  0  0
 23 38  1  0  0  0  0
 24 27  1  0  0  0  0
 24 28  2  0  0  0  0
 26 27  2  0  0  0  0
 26 29  1  0  0  0  0
 26 31  1  0  0  0  0
 27 42  1  0  0  0  0
 28 30  1  0  0  0  0
 28 44  1  0  0  0  0
 29 30  2  0  0  0  0
 29 45  1  0  0  0  0
 30 46  1  0  0  0  0
M  END
> <PUBCHEM_COMPOUND_CID>
49830783

> <PUBCHEM_COMPOUND_CANONICALIZED>
1

> <PUBCHEM_CACTVS_COMPLEXITY>
635

> <PUBCHEM_CACTVS_HBOND_ACCEPTOR>
7

> <PUBCHEM_CACTVS_HBOND_DONOR>
4

> <PUBCHEM_CACTVS_ROTATABLE_BOND>
3

> <PUBCHEM_CACTVS_SUBSKEYS>
AAADccB7ocAAAAAAAAAAAAAAAAAAAWAAAAAwYMAAAAAAAFgB9AAAHwAYAAAADAiBHhgx8PLjAACqAyZicACSBAIhAgAcuSAwZJiIIKLA0dGEpAh4nAJIyCcQgMAOiAAAQAASAAAQAACAACQAAAAAAAAAAA==

> <PUBCHEM_IUPAC_OPENEYE_NAME>
1-[4-(3-amino-1H-indazol-4-yl)-2-fluoro-phenyl]-3-[3-(trifluoromethyl)phenyl]urea

> <PUBCHEM_IUPAC_CAS_NAME>
1-[4-(3-amino-1H-indazol-4-yl)-2-fluorophenyl]-3-[3-(trifluoromethyl)phenyl]urea

> <PUBCHEM_IUPAC_NAME_MARKUP>
1-[4-(3-amino-1<I>H</I>-indazol-4-yl)-2-fluorophenyl]-3-[3-(trifluoromethyl)phenyl]urea

> <PUBCHEM_IUPAC_NAME>
1-[4-(3-amino-1H-indazol-4-yl)-2-fluorophenyl]-3-[3-(trifluoromethyl)phenyl]urea

> <PUBCHEM_IUPAC_SYSTEMATIC_NAME>
1-[4-(3-azanyl-1H-indazol-4-yl)-2-fluoranyl-phenyl]-3-[3-(trifluoromethyl)phenyl]urea

> <PUBCHEM_IUPAC_TRADITIONAL_NAME>
1-[4-(3-amino-1H-indazol-4-yl)-2-fluoro-phenyl]-3-[3-(trifluoromethyl)phenyl]urea

> <PUBCHEM_IUPAC_INCHI>
InChI=1S/C21H15F4N5O/c22-15-9-11(14-5-2-6-17-18(14)19(26)30-29-17)7-8-16(15)28-20(31)27-13-4-1-3-12(10-13)21(23,24)25/h1-10H,(H3,26,29,30)(H2,27,28,31)

> <PUBCHEM_IUPAC_INCHIKEY>
RKLGMDOZEOTQEM-UHFFFAOYSA-N

> <PUBCHEM_XLOGP3_AA>
4.4

> <PUBCHEM_EXACT_MASS>
429.12127277

> <PUBCHEM_MOLECULAR_FORMULA>
C21H15F4N5O

> <PUBCHEM_MOLECULAR_WEIGHT>
429.4

> <PUBCHEM_SMILES>
C1=CC(=CC(=C1)NC(=O)NC2=C(C=C(C=C2)C3=C4C(=CC=C3)NN=C4N)F)C(F)(F)F

> <PUBCHEM_OPENEYE_CAN_SMILES>
C1=CC(=CC(=C1)NC(=O)NC2=C(C=C(C=C2)C3=C4C(=CC=C3)NN=C4N)F)C(F)(F)F

> <PUBCHEM_OPENEYE_ISO_SMILES>
C1=CC(=CC(=C1)NC(=O)NC2=C(C=C(C=C2)C3=C4C(=CC=C3)NN=C4N)F)C(F)(F)F

> <PUBCHEM_CACTVS_TPSA>
95.8

> <PUBCHEM_MONOISOTOPIC_WEIGHT>
429.12127277

> <PUBCHEM_TOTAL_CHARGE>
0

> <PUBCHEM_HEAVY_ATOM_COUNT>
31

> <PUBCHEM_ATOM_DEF_STEREO_COUNT>
0

> <PUBCHEM_ATOM_UDEF_STEREO_COUNT>
0

> <PUBCHEM_BOND_DEF_STEREO_COUNT>
0

> <PUBCHEM_BOND_UDEF_STEREO_COUNT>
0

> <PUBCHEM_ISOTOPIC_ATOM_COUNT>
0

> <PUBCHEM_COMPONENT_COUNT>
1

> <PUBCHEM_CACTVS_TAUTO_COUNT>
-1

> <PUBCHEM_COORDINATE_TYPE>
1
5
255

> <PUBCHEM_BONDANNOTATIONS>
11  12  8
11  13  8
11  15  8
12  16  8
13  17  8
14  18  8
14  19  8
16  20  8
17  20  8
18  22  8
19  23  8
21  22  8
21  23  8
24  27  8
24  28  8
26  27  8
26  29  8
28  30  8
29  30  8
6  13  8
6  7  8
7  15  8

$$$$
