57395116
  -OEChem-03202500402D

 61 66  0     1  0  0  0  0  0999 V2000
    4.3910   -3.2334    0.0000 O   0  0  0  0  0  0  0  0  0  0  0  0
    5.7021    1.3878    0.0000 N   0  0  3  0  0  0  0  0  0  0  0  0
    4.7511   -1.5392    0.0000 N   0  0  0  0  0  0  0  0  0  0  0  0
    7.2156    3.5579    0.0000 N   0  0  0  0  0  0  0  0  0  0  0  0
    6.7764   -2.0324    0.0000 N   0  0  0  0  0  0  0  0  0  0  0  0
    4.7511    0.0788    0.0000 C   0  0  2  0  0  0  0  0  0  0  0  0
    5.7021    0.3878    0.0000 C   0  0  0  0  0  0  0  0  0  0  0  0
    4.1633    0.8878    0.0000 C   0  0  0  0  0  0  0  0  0  0  0  0
    4.7511    1.6968    0.0000 C   0  0  0  0  0  0  0  0  0  0  0  0
    5.3388   -0.7302    0.0000 C   0  0  0  0  0  0  0  0  0  0  0  0
    6.5111    1.9756    0.0000 C   0  0  3  0  0  0  0  0  0  0  0  0
    3.8000   -0.2302    0.0000 C   0  0  0  0  0  0  0  0  0  0  0  0
    7.4247    1.5688    0.0000 C   0  0  0  0  0  0  0  0  0  0  0  0
    3.8000   -1.2302    0.0000 C   0  0  0  0  0  0  0  0  0  0  0  0
    6.4066    2.9701    0.0000 C   0  0  0  0  0  0  0  0  0  0  0  0
    8.2337    2.1566    0.0000 C   0  0  0  0  0  0  0  0  0  0  0  0
    8.1292    3.1512    0.0000 C   0  0  1  0  0  0  0  0  0  0  0  0
    2.9061    0.3044    0.0000 C   0  0  0  0  0  0  0  0  0  0  0  0
    2.9061   -1.7649    0.0000 C   0  0  0  0  0  0  0  0  0  0  0  0
    5.0601   -2.4903    0.0000 C   0  0  0  0  0  0  0  0  0  0  0  0
    2.0000   -0.2094    0.0000 C   0  0  0  0  0  0  0  0  0  0  0  0
    8.9382    3.7389    0.0000 C   0  0  0  0  0  0  0  0  0  0  0  0
    2.0000   -1.2510    0.0000 C   0  0  0  0  0  0  0  0  0  0  0  0
    6.0382   -2.6982    0.0000 C   0  0  0  0  0  0  0  0  0  0  0  0
    6.4418   -3.6067    0.0000 C   0  0  0  0  0  0  0  0  0  0  0  0
    7.6386   -2.5272    0.0000 C   0  0  0  0  0  0  0  0  0  0  0  0
    7.4307   -3.5054    0.0000 C   0  0  0  0  0  0  0  0  0  0  0  0
    8.5896   -2.2182    0.0000 C   0  0  0  0  0  0  0  0  0  0  0  0
    8.1738   -4.1745    0.0000 C   0  0  0  0  0  0  0  0  0  0  0  0
    9.3328   -2.8873    0.0000 C   0  0  0  0  0  0  0  0  0  0  0  0
    9.1249   -3.8655    0.0000 C   0  0  0  0  0  0  0  0  0  0  0  0
    5.8310   -0.2187    0.0000 H   0  0  0  0  0  0  0  0  0  0  0  0
    6.3187    0.4526    0.0000 H   0  0  0  0  0  0  0  0  0  0  0  0
    3.7025    1.3027    0.0000 H   0  0  0  0  0  0  0  0  0  0  0  0
    3.7025    0.4729    0.0000 H   0  0  0  0  0  0  0  0  0  0  0  0
    5.0032    2.2632    0.0000 H   0  0  0  0  0  0  0  0  0  0  0  0
    4.2141    2.0068    0.0000 H   0  0  0  0  0  0  0  0  0  0  0  0
    5.7996   -1.1451    0.0000 H   0  0  0  0  0  0  0  0  0  0  0  0
    5.7996   -0.3154    0.0000 H   0  0  0  0  0  0  0  0  0  0  0  0
    6.5760    1.3590    0.0000 H   0  0  0  0  0  0  0  0  0  0  0  0
    7.0780    1.0548    0.0000 H   0  0  0  0  0  0  0  0  0  0  0  0
    7.8707    1.1382    0.0000 H   0  0  0  0  0  0  0  0  0  0  0  0
    6.1348    3.5274    0.0000 H   0  0  0  0  0  0  0  0  0  0  0  0
    5.8106    2.7992    0.0000 H   0  0  0  0  0  0  0  0  0  0  0  0
    8.5055    1.5994    0.0000 H   0  0  0  0  0  0  0  0  0  0  0  0
    8.8297    2.3275    0.0000 H   0  0  0  0  0  0  0  0  0  0  0  0
    8.0644    3.7678    0.0000 H   0  0  0  0  0  0  0  0  0  0  0  0
    2.9132    0.9244    0.0000 H   0  0  0  0  0  0  0  0  0  0  0  0
    7.1508    4.1745    0.0000 H   0  0  0  0  0  0  0  0  0  0  0  0
    2.9132   -2.3849    0.0000 H   0  0  0  0  0  0  0  0  0  0  0  0
    1.4643    0.1026    0.0000 H   0  0  0  0  0  0  0  0  0  0  0  0
    9.3026    3.2374    0.0000 H   0  0  0  0  0  0  0  0  0  0  0  0
    9.4398    4.1034    0.0000 H   0  0  0  0  0  0  0  0  0  0  0  0
    8.5738    4.2405    0.0000 H   0  0  0  0  0  0  0  0  0  0  0  0
    1.4643   -1.5631    0.0000 H   0  0  0  0  0  0  0  0  0  0  0  0
    6.7105   -1.4159    0.0000 H   0  0  0  0  0  0  0  0  0  0  0  0
    6.1308   -4.1431    0.0000 H   0  0  0  0  0  0  0  0  0  0  0  0
    8.7186   -1.6118    0.0000 H   0  0  0  0  0  0  0  0  0  0  0  0
    8.0449   -4.7810    0.0000 H   0  0  0  0  0  0  0  0  0  0  0  0
    9.9224   -2.6957    0.0000 H   0  0  0  0  0  0  0  0  0  0  0  0
    9.5856   -4.2803    0.0000 H   0  0  0  0  0  0  0  0  0  0  0  0
  1 20  2  0  0  0  0
  2  7  1  0  0  0  0
  2  9  1  0  0  0  0
  2 11  1  0  0  0  0
  3 10  1  0  0  0  0
  3 14  1  0  0  0  0
  3 20  1  0  0  0  0
  4 15  1  0  0  0  0
  4 17  1  0  0  0  0
  4 49  1  0  0  0  0
  5 24  1  0  0  0  0
  5 26  1  0  0  0  0
  5 56  1  0  0  0  0
  6  7  1  0  0  0  0
  6  8  1  1  0  0  0
  6 10  1  0  0  0  0
  6 12  1  0  0  0  0
  7 32  1  0  0  0  0
  7 33  1  0  0  0  0
  8  9  1  0  0  0  0
  8 34  1  0  0  0  0
  8 35  1  0  0  0  0
  9 36  1  0  0  0  0
  9 37  1  0  0  0  0
 10 38  1  0  0  0  0
 10 39  1  0  0  0  0
 11 13  1  0  0  0  0
 11 15  1  0  0  0  0
 11 40  1  0  0  0  0
 12 14  1  0  0  0  0
 12 18  2  0  0  0  0
 13 16  1  0  0  0  0
 13 41  1  0  0  0  0
 13 42  1  0  0  0  0
 14 19  2  0  0  0  0
 15 43  1  0  0  0  0
 15 44  1  0  0  0  0
 16 17  1  0  0  0  0
 16 45  1  0  0  0  0
 16 46  1  0  0  0  0
 17 22  1  6  0  0  0
 17 47  1  0  0  0  0
 18 21  1  0  0  0  0
 18 48  1  0  0  0  0
 19 23  1  0  0  0  0
 19 50  1  0  0  0  0
 20 24  1  0  0  0  0
 21 23  2  0  0  0  0
 21 51  1  0  0  0  0
 22 52  1  0  0  0  0
 22 53  1  0  0  0  0
 22 54  1  0  0  0  0
 23 55  1  0  0  0  0
 24 25  2  0  0  0  0
 25 27  1  0  0  0  0
 25 57  1  0  0  0  0
 26 27  1  0  0  0  0
 26 28  2  0  0  0  0
 27 29  2  0  0  0  0
 28 30  1  0  0  0  0
 28 58  1  0  0  0  0
 29 31  1  0  0  0  0
 29 59  1  0  0  0  0
 30 31  2  0  0  0  0
 30 60  1  0  0  0  0
 31 61  1  0  0  0  0
M  END
> <PUBCHEM_COMPOUND_CID>
57395116

> <PUBCHEM_COMPOUND_CANONICALIZED>
1

> <PUBCHEM_CACTVS_COMPLEXITY>
684

> <PUBCHEM_CACTVS_HBOND_ACCEPTOR>
3

> <PUBCHEM_CACTVS_HBOND_DONOR>
2

> <PUBCHEM_CACTVS_ROTATABLE_BOND>
2

> <PUBCHEM_CACTVS_SUBSKEYS>
AAADceB7oAAAAAAAAAAAAAAAAAAAAWLFgAA8YIAAAAAAAFgB9AAAHgAQAAAADijBngQywPPJkACoAyVyVACCgCAnAiAImaG4ZNgIYPLA1bGUIQhglgDIyYcYicCfgAAAAAACAAAAAAAAAAQAAAAAAAAAAA==

> <PUBCHEM_IUPAC_OPENEYE_NAME>
1H-indol-2-yl-[(3R)-1'-[(6R)-6-methyl-3-piperidyl]spiro[indoline-3,3'-pyrrolidine]-1-yl]methanone

> <PUBCHEM_IUPAC_CAS_NAME>
1H-indol-2-yl-[(3R)-1'-[(6R)-6-methyl-3-piperidinyl]-1-spiro[2H-indole-3,3'-pyrrolidine]yl]methanone

> <PUBCHEM_IUPAC_NAME_MARKUP>
1<I>H</I>-indol-2-yl-[(3<I>R</I>)-1&apos;-[(6<I>R</I>)-6-methylpiperidin-3-yl]spiro[2<I>H</I>-indole-3,3&apos;-pyrrolidine]-1-yl]methanone

> <PUBCHEM_IUPAC_NAME>
1H-indol-2-yl-[(3R)-1'-[(6R)-6-methylpiperidin-3-yl]spiro[2H-indole-3,3'-pyrrolidine]-1-yl]methanone

> <PUBCHEM_IUPAC_SYSTEMATIC_NAME>
1H-indol-2-yl-[(3R)-1'-[(6R)-6-methylpiperidin-3-yl]spiro[2H-indole-3,3'-pyrrolidine]-1-yl]methanone

> <PUBCHEM_IUPAC_TRADITIONAL_NAME>
1H-indol-2-yl-[(3R)-1'-[(6R)-6-methyl-3-piperidyl]spiro[indoline-3,3'-pyrrolidine]-1-yl]methanone

> <PUBCHEM_IUPAC_INCHI>
InChI=1S/C26H30N4O/c1-18-10-11-20(15-27-18)29-13-12-26(16-29)17-30(24-9-5-3-7-21(24)26)25(31)23-14-19-6-2-4-8-22(19)28-23/h2-9,14,18,20,27-28H,10-13,15-17H2,1H3/t18-,20?,26-/m1/s1

> <PUBCHEM_IUPAC_INCHIKEY>
XXRJWFOMOOANJW-MKBNCEHSSA-N

> <PUBCHEM_XLOGP3_AA>
4

> <PUBCHEM_EXACT_MASS>
414.24196159

> <PUBCHEM_MOLECULAR_FORMULA>
C26H30N4O

> <PUBCHEM_MOLECULAR_WEIGHT>
414.5

> <PUBCHEM_SMILES>
C[C@@H]1CCC(CN1)N2CC[C@@]3(C2)CN(C4=CC=CC=C34)C(=O)C5=CC6=CC=CC=C6N5

> <PUBCHEM_OPENEYE_CAN_SMILES>
CC1CCC(CN1)N2CCC3(C2)CN(C4=CC=CC=C34)C(=O)C5=CC6=CC=CC=C6N5

> <PUBCHEM_OPENEYE_ISO_SMILES>
C[C@@H]1CCC(CN1)N2CC[C@@]3(C2)CN(C4=CC=CC=C34)C(=O)C5=CC6=CC=CC=C6N5

> <PUBCHEM_CACTVS_TPSA>
51.4

> <PUBCHEM_MONOISOTOPIC_WEIGHT>
414.24196159

> <PUBCHEM_TOTAL_CHARGE>
0

> <PUBCHEM_HEAVY_ATOM_COUNT>
31

> <PUBCHEM_ATOM_DEF_STEREO_COUNT>
2

> <PUBCHEM_ATOM_UDEF_STEREO_COUNT>
1

> <PUBCHEM_BOND_DEF_STEREO_COUNT>
0

> <PUBCHEM_BOND_UDEF_STEREO_COUNT>
0

> <PUBCHEM_ISOTOPIC_ATOM_COUNT>
0

> <PUBCHEM_COMPONENT_COUNT>
1

> <PUBCHEM_CACTVS_TAUTO_COUNT>
-1

> <PUBCHEM_COORDINATE_TYPE>
1
5
255

> <PUBCHEM_BONDANNOTATIONS>
12  14  8
12  18  8
14  19  8
17  22  6
18  21  8
19  23  8
11  2  3
21  23  8
24  25  8
25  27  8
26  27  8
26  28  8
27  29  8
28  30  8
29  31  8
30  31  8
5  24  8
5  26  8
6  8  5

$$$$
