56955954
  -OEChem-03202504472D

 44 46  0     0  0  0  0  0  0999 V2000
    8.9282   -1.8100    0.0000 Cl  0  0  0  0  0  0  0  0  0  0  0  0
    8.9282    0.1900    0.0000 S   0  0  0  0  0  0  0  0  0  0  0  0
    9.7942   -1.3100    0.0000 F   0  0  0  0  0  0  0  0  0  0  0  0
   11.5263   -2.3100    0.0000 F   0  0  0  0  0  0  0  0  0  0  0  0
    8.4282    1.0560    0.0000 O   0  0  0  0  0  0  0  0  0  0  0  0
    9.4282   -0.6760    0.0000 O   0  0  0  0  0  0  0  0  0  0  0  0
    2.0000    0.1900    0.0000 O   0  0  0  0  0  0  0  0  0  0  0  0
    9.7942    0.6900    0.0000 N   0  0  0  0  0  0  0  0  0  0  0  0
    4.5981   -0.3100    0.0000 N   0  0  0  0  0  0  0  0  0  0  0  0
    4.5981    1.6900    0.0000 N   0  0  0  0  0  0  0  0  0  0  0  0
    2.8660    1.6900    0.0000 N   0  0  0  0  0  0  0  0  0  0  0  0
    2.8660   -1.3100    0.0000 N   0  0  0  0  0  0  0  0  0  0  0  0
    8.0622   -0.3100    0.0000 C   0  0  0  0  0  0  0  0  0  0  0  0
    6.3301   -0.3100    0.0000 C   0  0  0  0  0  0  0  0  0  0  0  0
    7.1962    0.1900    0.0000 C   0  0  0  0  0  0  0  0  0  0  0  0
    8.0622   -1.3100    0.0000 C   0  0  0  0  0  0  0  0  0  0  0  0
    6.3301   -1.3100    0.0000 C   0  0  0  0  0  0  0  0  0  0  0  0
    5.4641    0.1900    0.0000 C   0  0  0  0  0  0  0  0  0  0  0  0
    7.1962   -1.8100    0.0000 C   0  0  0  0  0  0  0  0  0  0  0  0
   10.6603    0.1900    0.0000 C   0  0  0  0  0  0  0  0  0  0  0  0
   10.6603   -0.8100    0.0000 C   0  0  0  0  0  0  0  0  0  0  0  0
   11.5263    0.6900    0.0000 C   0  0  0  0  0  0  0  0  0  0  0  0
    5.4641    1.1900    0.0000 C   0  0  0  0  0  0  0  0  0  0  0  0
    3.7320    0.1900    0.0000 C   0  0  0  0  0  0  0  0  0  0  0  0
    3.7320    1.1900    0.0000 C   0  0  0  0  0  0  0  0  0  0  0  0
   11.5263   -1.3100    0.0000 C   0  0  0  0  0  0  0  0  0  0  0  0
   12.3923    0.1900    0.0000 C   0  0  0  0  0  0  0  0  0  0  0  0
   12.3923   -0.8100    0.0000 C   0  0  0  0  0  0  0  0  0  0  0  0
    2.8660   -0.3100    0.0000 C   0  0  0  0  0  0  0  0  0  0  0  0
    2.0000   -1.8100    0.0000 C   0  0  0  0  0  0  0  0  0  0  0  0
    7.1962    0.8100    0.0000 H   0  0  0  0  0  0  0  0  0  0  0  0
    9.7942    1.3100    0.0000 H   0  0  0  0  0  0  0  0  0  0  0  0
    5.7932   -1.6200    0.0000 H   0  0  0  0  0  0  0  0  0  0  0  0
    7.1962   -2.4300    0.0000 H   0  0  0  0  0  0  0  0  0  0  0  0
   11.5263    1.3100    0.0000 H   0  0  0  0  0  0  0  0  0  0  0  0
    6.0010    1.5000    0.0000 H   0  0  0  0  0  0  0  0  0  0  0  0
   12.9292    0.5000    0.0000 H   0  0  0  0  0  0  0  0  0  0  0  0
   12.9292   -1.1200    0.0000 H   0  0  0  0  0  0  0  0  0  0  0  0
    2.8660    2.3100    0.0000 H   0  0  0  0  0  0  0  0  0  0  0  0
    2.3291    1.3800    0.0000 H   0  0  0  0  0  0  0  0  0  0  0  0
    3.4030   -1.6200    0.0000 H   0  0  0  0  0  0  0  0  0  0  0  0
    1.6900   -1.2731    0.0000 H   0  0  0  0  0  0  0  0  0  0  0  0
    1.4631   -2.1200    0.0000 H   0  0  0  0  0  0  0  0  0  0  0  0
    2.3100   -2.3469    0.0000 H   0  0  0  0  0  0  0  0  0  0  0  0
  1 16  1  0  0  0  0
  2  5  2  0  0  0  0
  2  6  2  0  0  0  0
  2  8  1  0  0  0  0
  2 13  1  0  0  0  0
  3 21  1  0  0  0  0
  4 26  1  0  0  0  0
  7 29  2  0  0  0  0
  8 20  1  0  0  0  0
  8 32  1  0  0  0  0
  9 18  1  0  0  0  0
  9 24  2  0  0  0  0
 10 23  1  0  0  0  0
 10 25  2  0  0  0  0
 11 25  1  0  0  0  0
 11 39  1  0  0  0  0
 11 40  1  0  0  0  0
 12 29  1  0  0  0  0
 12 30  1  0  0  0  0
 12 41  1  0  0  0  0
 13 15  1  0  0  0  0
 13 16  2  0  0  0  0
 14 15  2  0  0  0  0
 14 17  1  0  0  0  0
 14 18  1  0  0  0  0
 15 31  1  0  0  0  0
 16 19  1  0  0  0  0
 17 19  2  0  0  0  0
 17 33  1  0  0  0  0
 18 23  2  0  0  0  0
 19 34  1  0  0  0  0
 20 21  2  0  0  0  0
 20 22  1  0  0  0  0
 21 26  1  0  0  0  0
 22 27  2  0  0  0  0
 22 35  1  0  0  0  0
 23 36  1  0  0  0  0
 24 25  1  0  0  0  0
 24 29  1  0  0  0  0
 26 28  2  0  0  0  0
 27 28  1  0  0  0  0
 27 37  1  0  0  0  0
 28 38  1  0  0  0  0
 30 42  1  0  0  0  0
 30 43  1  0  0  0  0
 30 44  1  0  0  0  0
M  END
> <PUBCHEM_COMPOUND_CID>
56955954

> <PUBCHEM_COMPOUND_CANONICALIZED>
1

> <PUBCHEM_CACTVS_COMPLEXITY>
712

> <PUBCHEM_CACTVS_HBOND_ACCEPTOR>
9

> <PUBCHEM_CACTVS_HBOND_DONOR>
3

> <PUBCHEM_CACTVS_ROTATABLE_BOND>
5

> <PUBCHEM_CACTVS_SUBSKEYS>
AAADccB7sYBEAAAAAAAAAAAAAAAAAAAAAAA8YIAAAAAAAAAB0AAAHwYQQAAADArB3iw/8ZLIEAKoAzd3dHDCgD03FyAI2Lm4dtiIYOrB07GUIIhgkgLIyGcQgIAOBAAAgAAAAIAIAAEAAAABAAAAAAAAAA==

> <PUBCHEM_IUPAC_OPENEYE_NAME>
3-amino-6-[4-chloro-3-[(2,3-difluorophenyl)sulfamoyl]phenyl]-N-methyl-pyrazine-2-carboxamide

> <PUBCHEM_IUPAC_CAS_NAME>
3-amino-6-[4-chloro-3-[(2,3-difluorophenyl)sulfamoyl]phenyl]-N-methyl-2-pyrazinecarboxamide

> <PUBCHEM_IUPAC_NAME_MARKUP>
3-amino-6-[4-chloro-3-[(2,3-difluorophenyl)sulfamoyl]phenyl]-<I>N</I>-methylpyrazine-2-carboxamide

> <PUBCHEM_IUPAC_NAME>
3-amino-6-[4-chloro-3-[(2,3-difluorophenyl)sulfamoyl]phenyl]-N-methylpyrazine-2-carboxamide

> <PUBCHEM_IUPAC_SYSTEMATIC_NAME>
3-azanyl-6-[3-[[2,3-bis(fluoranyl)phenyl]sulfamoyl]-4-chloranyl-phenyl]-N-methyl-pyrazine-2-carboxamide

> <PUBCHEM_IUPAC_TRADITIONAL_NAME>
3-amino-6-[4-chloro-3-[(2,3-difluorophenyl)sulfamoyl]phenyl]-N-methyl-pyrazinamide

> <PUBCHEM_IUPAC_INCHI>
InChI=1S/C18H14ClF2N5O3S/c1-23-18(27)16-17(22)24-8-13(25-16)9-5-6-10(19)14(7-9)30(28,29)26-12-4-2-3-11(20)15(12)21/h2-8,26H,1H3,(H2,22,24)(H,23,27)

> <PUBCHEM_IUPAC_INCHIKEY>
GEYLKEHPEKRUTC-UHFFFAOYSA-N

> <PUBCHEM_XLOGP3_AA>
2.6

> <PUBCHEM_EXACT_MASS>
453.0473945

> <PUBCHEM_MOLECULAR_FORMULA>
C18H14ClF2N5O3S

> <PUBCHEM_MOLECULAR_WEIGHT>
453.9

> <PUBCHEM_SMILES>
CNC(=O)C1=NC(=CN=C1N)C2=CC(=C(C=C2)Cl)S(=O)(=O)NC3=C(C(=CC=C3)F)F

> <PUBCHEM_OPENEYE_CAN_SMILES>
CNC(=O)C1=NC(=CN=C1N)C2=CC(=C(C=C2)Cl)S(=O)(=O)NC3=C(C(=CC=C3)F)F

> <PUBCHEM_OPENEYE_ISO_SMILES>
CNC(=O)C1=NC(=CN=C1N)C2=CC(=C(C=C2)Cl)S(=O)(=O)NC3=C(C(=CC=C3)F)F

> <PUBCHEM_CACTVS_TPSA>
135

> <PUBCHEM_MONOISOTOPIC_WEIGHT>
453.0473945

> <PUBCHEM_TOTAL_CHARGE>
0

> <PUBCHEM_HEAVY_ATOM_COUNT>
30

> <PUBCHEM_ATOM_DEF_STEREO_COUNT>
0

> <PUBCHEM_ATOM_UDEF_STEREO_COUNT>
0

> <PUBCHEM_BOND_DEF_STEREO_COUNT>
0

> <PUBCHEM_BOND_UDEF_STEREO_COUNT>
0

> <PUBCHEM_ISOTOPIC_ATOM_COUNT>
0

> <PUBCHEM_COMPONENT_COUNT>
1

> <PUBCHEM_CACTVS_TAUTO_COUNT>
-1

> <PUBCHEM_COORDINATE_TYPE>
1
5
255

> <PUBCHEM_BONDANNOTATIONS>
10  23  8
10  25  8
13  15  8
13  16  8
14  15  8
14  17  8
16  19  8
17  19  8
18  23  8
20  21  8
20  22  8
21  26  8
22  27  8
24  25  8
26  28  8
27  28  8
9  18  8
9  24  8

$$$$
