11846125
  -OEChem-03202505532D

 43 44  0     0  0  0  0  0  0999 V2000
    3.0000   -1.5000    0.0000 S   0  0  0  0  0  0  0  0  0  0  0  0
    2.0000   -1.5000    0.0000 O   0  0  0  0  0  0  0  0  0  0  0  0
    4.0000   -1.5000    0.0000 O   0  0  0  0  0  0  0  0  0  0  0  0
    9.9282   -0.5000    0.0000 O   0  0  0  0  0  0  0  0  0  0  0  0
    6.4641   -1.5000    0.0000 O   0  0  0  0  0  0  0  0  0  0  0  0
    5.5981    0.0000    0.0000 N   0  0  0  0  0  0  0  0  0  0  0  0
    3.0000   -2.5000    0.0000 N   0  0  0  0  0  0  0  0  0  0  0  0
    8.1962   -0.5000    0.0000 N   0  0  0  0  0  0  0  0  0  0  0  0
    8.1962    2.5000    0.0000 N   0  0  0  0  0  0  0  0  0  0  0  0
   10.7942    2.0000    0.0000 N   0  0  0  0  0  0  0  0  0  0  0  0
    3.8660   -0.0000    0.0000 C   0  0  0  0  0  0  0  0  0  0  0  0
    3.0000   -0.5000    0.0000 C   0  0  0  0  0  0  0  0  0  0  0  0
    4.7320   -0.5000    0.0000 C   0  0  0  0  0  0  0  0  0  0  0  0
    3.8660    1.0000    0.0000 C   0  0  0  0  0  0  0  0  0  0  0  0
    2.1340   -0.0000    0.0000 C   0  0  0  0  0  0  0  0  0  0  0  0
    3.0000    1.5000    0.0000 C   0  0  0  0  0  0  0  0  0  0  0  0
    2.1340    1.0000    0.0000 C   0  0  0  0  0  0  0  0  0  0  0  0
    6.4641   -0.5000    0.0000 C   0  0  0  0  0  0  0  0  0  0  0  0
    7.3301    0.0000    0.0000 C   0  0  0  0  0  0  0  0  0  0  0  0
    7.3301    1.0000    0.0000 C   0  0  0  0  0  0  0  0  0  0  0  0
    8.1962    1.5000    0.0000 C   0  0  0  0  0  0  0  0  0  0  0  0
    9.0622    0.0000    0.0000 C   0  0  0  0  0  0  0  0  0  0  0  0
    9.0622    1.0000    0.0000 C   0  0  0  0  0  0  0  0  0  0  0  0
    9.9282   -1.5000    0.0000 C   0  0  0  0  0  0  0  0  0  0  0  0
   10.7942   -2.0000    0.0000 C   0  0  0  0  0  0  0  0  0  0  0  0
    9.9282    1.5000    0.0000 C   0  0  0  0  0  0  0  0  0  0  0  0
    4.3335   -0.9749    0.0000 H   0  0  0  0  0  0  0  0  0  0  0  0
    5.1306   -0.9749    0.0000 H   0  0  0  0  0  0  0  0  0  0  0  0
    4.4030    1.3100    0.0000 H   0  0  0  0  0  0  0  0  0  0  0  0
    1.5970   -0.3100    0.0000 H   0  0  0  0  0  0  0  0  0  0  0  0
    5.5981    0.6200    0.0000 H   0  0  0  0  0  0  0  0  0  0  0  0
    3.0000    2.1200    0.0000 H   0  0  0  0  0  0  0  0  0  0  0  0
    1.5970    1.3100    0.0000 H   0  0  0  0  0  0  0  0  0  0  0  0
    6.7932    1.3100    0.0000 H   0  0  0  0  0  0  0  0  0  0  0  0
    2.4631   -2.8100    0.0000 H   0  0  0  0  0  0  0  0  0  0  0  0
    3.5369   -2.8100    0.0000 H   0  0  0  0  0  0  0  0  0  0  0  0
    9.3176   -1.3923    0.0000 H   0  0  0  0  0  0  0  0  0  0  0  0
    9.7162   -2.0826    0.0000 H   0  0  0  0  0  0  0  0  0  0  0  0
    7.6592    2.8100    0.0000 H   0  0  0  0  0  0  0  0  0  0  0  0
    8.7331    2.8100    0.0000 H   0  0  0  0  0  0  0  0  0  0  0  0
   10.4842   -2.5369    0.0000 H   0  0  0  0  0  0  0  0  0  0  0  0
   11.3312   -2.3100    0.0000 H   0  0  0  0  0  0  0  0  0  0  0  0
   11.1042   -1.4631    0.0000 H   0  0  0  0  0  0  0  0  0  0  0  0
  1  2  2  0  0  0  0
  1  3  2  0  0  0  0
  1  7  1  0  0  0  0
  1 12  1  0  0  0  0
  4 22  1  0  0  0  0
  4 24  1  0  0  0  0
  5 18  2  0  0  0  0
  6 13  1  0  0  0  0
  6 18  1  0  0  0  0
  6 31  1  0  0  0  0
  7 35  1  0  0  0  0
  7 36  1  0  0  0  0
  8 19  2  0  0  0  0
  8 22  1  0  0  0  0
  9 21  1  0  0  0  0
  9 39  1  0  0  0  0
  9 40  1  0  0  0  0
 10 26  3  0  0  0  0
 11 12  1  0  0  0  0
 11 13  1  0  0  0  0
 11 14  2  0  0  0  0
 12 15  2  0  0  0  0
 13 27  1  0  0  0  0
 13 28  1  0  0  0  0
 14 16  1  0  0  0  0
 14 29  1  0  0  0  0
 15 17  1  0  0  0  0
 15 30  1  0  0  0  0
 16 17  2  0  0  0  0
 16 32  1  0  0  0  0
 17 33  1  0  0  0  0
 18 19  1  0  0  0  0
 19 20  1  0  0  0  0
 20 21  2  0  0  0  0
 20 34  1  0  0  0  0
 21 23  1  0  0  0  0
 22 23  2  0  0  0  0
 23 26  1  0  0  0  0
 24 25  1  0  0  0  0
 24 37  1  0  0  0  0
 24 38  1  0  0  0  0
 25 41  1  0  0  0  0
 25 42  1  0  0  0  0
 25 43  1  0  0  0  0
M  END
> <PUBCHEM_COMPOUND_CID>
11846125

> <PUBCHEM_COMPOUND_CANONICALIZED>
1

> <PUBCHEM_CACTVS_COMPLEXITY>
641

> <PUBCHEM_CACTVS_HBOND_ACCEPTOR>
8

> <PUBCHEM_CACTVS_HBOND_DONOR>
3

> <PUBCHEM_CACTVS_ROTATABLE_BOND>
6

> <PUBCHEM_CACTVS_SUBSKEYS>
AAADceB7uABAAAAAAAAAAAAAAAAAAAAAAAA8QAAAAAAAAAABwAAAHgQQQAAADAjh3gYyxZLIFAK4ByVyVHDiiDAnIiAImLm8bNgM5nLE9fuePSjm1hnI6Y+c2AEOAAAAAAAEAAAAAAAAAAgAAAAAAAAAAA==

> <PUBCHEM_IUPAC_OPENEYE_NAME>
4-amino-5-cyano-6-ethoxy-N-[(2-sulfamoylphenyl)methyl]pyridine-2-carboxamide

> <PUBCHEM_IUPAC_CAS_NAME>
4-amino-5-cyano-6-ethoxy-N-[(2-sulfamoylphenyl)methyl]-2-pyridinecarboxamide

> <PUBCHEM_IUPAC_NAME_MARKUP>
4-amino-5-cyano-6-ethoxy-<I>N</I>-[(2-sulfamoylphenyl)methyl]pyridine-2-carboxamide

> <PUBCHEM_IUPAC_NAME>
4-amino-5-cyano-6-ethoxy-N-[(2-sulfamoylphenyl)methyl]pyridine-2-carboxamide

> <PUBCHEM_IUPAC_SYSTEMATIC_NAME>
4-azanyl-5-cyano-6-ethoxy-N-[(2-sulfamoylphenyl)methyl]pyridine-2-carboxamide

> <PUBCHEM_IUPAC_TRADITIONAL_NAME>
4-amino-5-cyano-6-ethoxy-N-(2-sulfamoylbenzyl)picolinamide

> <PUBCHEM_IUPAC_INCHI>
InChI=1S/C16H17N5O4S/c1-2-25-16-11(8-17)12(18)7-13(21-16)15(22)20-9-10-5-3-4-6-14(10)26(19,23)24/h3-7H,2,9H2,1H3,(H2,18,21)(H,20,22)(H2,19,23,24)

> <PUBCHEM_IUPAC_INCHIKEY>
FTIAKTLRFKSDFR-UHFFFAOYSA-N

> <PUBCHEM_XLOGP3_AA>
0.8

> <PUBCHEM_EXACT_MASS>
375.10012521

> <PUBCHEM_MOLECULAR_FORMULA>
C16H17N5O4S

> <PUBCHEM_MOLECULAR_WEIGHT>
375.4

> <PUBCHEM_SMILES>
CCOC1=C(C(=CC(=N1)C(=O)NCC2=CC=CC=C2S(=O)(=O)N)N)C#N

> <PUBCHEM_OPENEYE_CAN_SMILES>
CCOC1=C(C(=CC(=N1)C(=O)NCC2=CC=CC=C2S(=O)(=O)N)N)C#N

> <PUBCHEM_OPENEYE_ISO_SMILES>
CCOC1=C(C(=CC(=N1)C(=O)NCC2=CC=CC=C2S(=O)(=O)N)N)C#N

> <PUBCHEM_CACTVS_TPSA>
170

> <PUBCHEM_MONOISOTOPIC_WEIGHT>
375.10012521

> <PUBCHEM_TOTAL_CHARGE>
0

> <PUBCHEM_HEAVY_ATOM_COUNT>
26

> <PUBCHEM_ATOM_DEF_STEREO_COUNT>
0

> <PUBCHEM_ATOM_UDEF_STEREO_COUNT>
0

> <PUBCHEM_BOND_DEF_STEREO_COUNT>
0

> <PUBCHEM_BOND_UDEF_STEREO_COUNT>
0

> <PUBCHEM_ISOTOPIC_ATOM_COUNT>
0

> <PUBCHEM_COMPONENT_COUNT>
1

> <PUBCHEM_CACTVS_TAUTO_COUNT>
-1

> <PUBCHEM_COORDINATE_TYPE>
1
5
255

> <PUBCHEM_BONDANNOTATIONS>
11  12  8
11  14  8
12  15  8
14  16  8
15  17  8
16  17  8
19  20  8
20  21  8
21  23  8
22  23  8
8  19  8
8  22  8

$$$$
