49830691
  -OEChem-03202502152D

 35 37  0     0  0  0  0  0  0999 V2000
    2.0000   -2.2648    0.0000 F   0  0  0  0  0  0  0  0  0  0  0  0
    2.0000   -4.2648    0.0000 F   0  0  0  0  0  0  0  0  0  0  0  0
    8.0148    4.2995    0.0000 F   0  0  0  0  0  0  0  0  0  0  0  0
    9.0263    3.3111    0.0000 F   0  0  0  0  0  0  0  0  0  0  0  0
    7.0264    3.2880    0.0000 F   0  0  0  0  0  0  0  0  0  0  0  0
    7.2124   -1.2102    0.0000 O   0  0  0  0  0  0  0  0  0  0  0  0
    5.4804   -1.2302    0.0000 N   0  0  0  0  0  0  0  0  0  0  0  0
    5.4920   -4.2995    0.0000 N   0  0  0  0  0  0  0  0  0  0  0  0
    6.3291    0.2797    0.0000 N   0  0  0  0  0  0  0  0  0  0  0  0
    7.1777    1.7896    0.0000 N   0  0  0  0  0  0  0  0  0  0  0  0
    4.5981   -2.7648    0.0000 C   0  0  0  0  0  0  0  0  0  0  0  0
    5.4920   -2.2301    0.0000 C   0  0  0  0  0  0  0  0  0  0  0  0
    4.5981   -3.7648    0.0000 C   0  0  0  0  0  0  0  0  0  0  0  0
    3.7320   -2.2648    0.0000 C   0  0  0  0  0  0  0  0  0  0  0  0
    6.3981   -2.7440    0.0000 C   0  0  0  0  0  0  0  0  0  0  0  0
    3.7320   -4.2648    0.0000 C   0  0  0  0  0  0  0  0  0  0  0  0
    2.8660   -2.7648    0.0000 C   0  0  0  0  0  0  0  0  0  0  0  0
    2.8660   -3.7648    0.0000 C   0  0  0  0  0  0  0  0  0  0  0  0
    6.3981   -3.7856    0.0000 C   0  0  0  0  0  0  0  0  0  0  0  0
    6.3406   -0.7202    0.0000 C   0  0  0  0  0  0  0  0  0  0  0  0
    7.1893    0.7897    0.0000 C   0  0  0  0  0  0  0  0  0  0  0  0
    8.0379    2.2996    0.0000 C   0  0  0  0  0  0  0  0  0  0  0  0
    8.0610    0.2997    0.0000 C   0  0  0  0  0  0  0  0  0  0  0  0
    8.9096    1.8096    0.0000 C   0  0  0  0  0  0  0  0  0  0  0  0
    8.9212    0.8097    0.0000 C   0  0  0  0  0  0  0  0  0  0  0  0
    8.0263    3.2995    0.0000 C   0  0  0  0  0  0  0  0  0  0  0  0
    3.7320   -1.6448    0.0000 H   0  0  0  0  0  0  0  0  0  0  0  0
    6.9338   -2.4319    0.0000 H   0  0  0  0  0  0  0  0  0  0  0  0
    4.9400   -0.9264    0.0000 H   0  0  0  0  0  0  0  0  0  0  0  0
    3.7320   -4.8848    0.0000 H   0  0  0  0  0  0  0  0  0  0  0  0
    6.9338   -4.0977    0.0000 H   0  0  0  0  0  0  0  0  0  0  0  0
    5.7886    0.5835    0.0000 H   0  0  0  0  0  0  0  0  0  0  0  0
    8.0682   -0.3202    0.0000 H   0  0  0  0  0  0  0  0  0  0  0  0
    9.4430    2.1258    0.0000 H   0  0  0  0  0  0  0  0  0  0  0  0
    9.4617    0.5059    0.0000 H   0  0  0  0  0  0  0  0  0  0  0  0
  1 17  1  0  0  0  0
  2 18  1  0  0  0  0
  3 26  1  0  0  0  0
  4 26  1  0  0  0  0
  5 26  1  0  0  0  0
  6 20  2  0  0  0  0
  7 12  1  0  0  0  0
  7 20  1  0  0  0  0
  7 29  1  0  0  0  0
  8 13  2  0  0  0  0
  8 19  1  0  0  0  0
  9 20  1  0  0  0  0
  9 21  1  0  0  0  0
  9 32  1  0  0  0  0
 10 21  1  0  0  0  0
 10 22  2  0  0  0  0
 11 12  2  0  0  0  0
 11 13  1  0  0  0  0
 11 14  1  0  0  0  0
 12 15  1  0  0  0  0
 13 16  1  0  0  0  0
 14 17  2  0  0  0  0
 14 27  1  0  0  0  0
 15 19  2  0  0  0  0
 15 28  1  0  0  0  0
 16 18  2  0  0  0  0
 16 30  1  0  0  0  0
 17 18  1  0  0  0  0
 19 31  1  0  0  0  0
 21 23  2  0  0  0  0
 22 24  1  0  0  0  0
 22 26  1  0  0  0  0
 23 25  1  0  0  0  0
 23 33  1  0  0  0  0
 24 25  2  0  0  0  0
 24 34  1  0  0  0  0
 25 35  1  0  0  0  0
M  END
> <PUBCHEM_COMPOUND_CID>
49830691

> <PUBCHEM_COMPOUND_CANONICALIZED>
1

> <PUBCHEM_CACTVS_COMPLEXITY>
506

> <PUBCHEM_CACTVS_HBOND_ACCEPTOR>
8

> <PUBCHEM_CACTVS_HBOND_DONOR>
2

> <PUBCHEM_CACTVS_ROTATABLE_BOND>
2

> <PUBCHEM_CACTVS_SUBSKEYS>
AAADccB7ocAAAAAAAAAAAAAAAAAAAAAAAAA8WIAAAAAAAACx/AAAHwAQAAAADAjBHhw98PLIEACoAzZndACCgCkxAiAJ2CA4ZJiIIOLA0dGEJAholQLIyCcQgIAOAAAAAAACAAAAAAAAAAQAAAAAAAAAAA==

> <PUBCHEM_IUPAC_OPENEYE_NAME>
1-(6,7-difluoro-4-quinolyl)-3-[6-(trifluoromethyl)-2-pyridyl]urea

> <PUBCHEM_IUPAC_CAS_NAME>
1-(6,7-difluoro-4-quinolinyl)-3-[6-(trifluoromethyl)-2-pyridinyl]urea

> <PUBCHEM_IUPAC_NAME_MARKUP>
1-(6,7-difluoroquinolin-4-yl)-3-[6-(trifluoromethyl)pyridin-2-yl]urea

> <PUBCHEM_IUPAC_NAME>
1-(6,7-difluoroquinolin-4-yl)-3-[6-(trifluoromethyl)pyridin-2-yl]urea

> <PUBCHEM_IUPAC_SYSTEMATIC_NAME>
1-[6,7-bis(fluoranyl)quinolin-4-yl]-3-[6-(trifluoromethyl)pyridin-2-yl]urea

> <PUBCHEM_IUPAC_TRADITIONAL_NAME>
1-(6,7-difluoro-4-quinolyl)-3-[6-(trifluoromethyl)-2-pyridyl]urea

> <PUBCHEM_IUPAC_INCHI>
InChI=1S/C16H9F5N4O/c17-9-6-8-11(4-5-22-12(8)7-10(9)18)23-15(26)25-14-3-1-2-13(24-14)16(19,20)21/h1-7H,(H2,22,23,24,25,26)

> <PUBCHEM_IUPAC_INCHIKEY>
VJKJKZOWXJKSSK-UHFFFAOYSA-N

> <PUBCHEM_XLOGP3_AA>
3.1

> <PUBCHEM_EXACT_MASS>
368.06965173

> <PUBCHEM_MOLECULAR_FORMULA>
C16H9F5N4O

> <PUBCHEM_MOLECULAR_WEIGHT>
368.26

> <PUBCHEM_SMILES>
C1=CC(=NC(=C1)NC(=O)NC2=C3C=C(C(=CC3=NC=C2)F)F)C(F)(F)F

> <PUBCHEM_OPENEYE_CAN_SMILES>
C1=CC(=NC(=C1)NC(=O)NC2=C3C=C(C(=CC3=NC=C2)F)F)C(F)(F)F

> <PUBCHEM_OPENEYE_ISO_SMILES>
C1=CC(=NC(=C1)NC(=O)NC2=C3C=C(C(=CC3=NC=C2)F)F)C(F)(F)F

> <PUBCHEM_CACTVS_TPSA>
66.9

> <PUBCHEM_MONOISOTOPIC_WEIGHT>
368.06965173

> <PUBCHEM_TOTAL_CHARGE>
0

> <PUBCHEM_HEAVY_ATOM_COUNT>
26

> <PUBCHEM_ATOM_DEF_STEREO_COUNT>
0

> <PUBCHEM_ATOM_UDEF_STEREO_COUNT>
0

> <PUBCHEM_BOND_DEF_STEREO_COUNT>
0

> <PUBCHEM_BOND_UDEF_STEREO_COUNT>
0

> <PUBCHEM_ISOTOPIC_ATOM_COUNT>
0

> <PUBCHEM_COMPONENT_COUNT>
1

> <PUBCHEM_CACTVS_TAUTO_COUNT>
-1

> <PUBCHEM_COORDINATE_TYPE>
1
5
255

> <PUBCHEM_BONDANNOTATIONS>
10  21  8
10  22  8
11  12  8
11  13  8
11  14  8
12  15  8
13  16  8
14  17  8
15  19  8
16  18  8
17  18  8
21  23  8
22  24  8
23  25  8
24  25  8
8  13  8
8  19  8

$$$$
