44278104
  -OEChem-03202505162D

 64 66  0     1  0  0  0  0  0999 V2000
    8.9209    2.2340    0.0000 Cl  0  0  0  0  0  0  0  0  0  0  0  0
    7.3211    0.1268    0.0000 O   0  0  0  0  0  0  0  0  0  0  0  0
    6.7320   -1.8728    0.0000 N   0  0  3  0  0  0  0  0  0  0  0  0
    6.7320   -2.8728    0.0000 N   0  0  3  0  0  0  0  0  0  0  0  0
    4.5000   -1.0068    0.0000 N   0  0  0  0  0  0  0  0  0  0  0  0
    8.9674   -0.4113    0.0000 N   0  0  0  0  0  0  0  0  0  0  0  0
   11.8564    2.8527    0.0000 N   0  0  0  0  0  0  0  0  0  0  0  0
   13.1456    4.0094    0.0000 N   0  0  0  0  0  0  0  0  0  0  0  0
   13.5028    2.3146    0.0000 N   0  0  0  0  0  0  0  0  0  0  0  0
    5.0000   -1.8728    0.0000 C   0  0  2  0  0  0  0  0  0  0  0  0
    5.8660   -1.3728    0.0000 C   0  0  0  0  0  0  0  0  0  0  0  0
    7.6783   -1.5681    0.0000 C   0  0  1  0  0  0  0  0  0  0  0  0
    5.0000   -2.8728    0.0000 C   0  0  0  0  0  0  0  0  0  0  0  0
    5.8660   -3.3728    0.0000 C   0  0  0  0  0  0  0  0  0  0  0  0
    7.6783   -3.1775    0.0000 C   0  0  0  0  0  0  0  0  0  0  0  0
    8.2619   -2.3728    0.0000 C   0  0  0  0  0  0  0  0  0  0  0  0
    4.0000   -1.8728    0.0000 C   0  0  0  0  0  0  0  0  0  0  0  0
    7.9889   -0.6175    0.0000 C   0  0  0  0  0  0  0  0  0  0  0  0
    3.5000   -2.7388    0.0000 C   0  0  0  0  0  0  0  0  0  0  0  0
    9.2781    0.5392    0.0000 C   0  0  1  0  0  0  0  0  0  0  0  0
    4.0000   -3.6048    0.0000 C   0  0  0  0  0  0  0  0  0  0  0  0
    2.5000   -2.7388    0.0000 C   0  0  0  0  0  0  0  0  0  0  0  0
   10.2566    0.7454    0.0000 C   0  0  0  0  0  0  0  0  0  0  0  0
    8.6103    1.2835    0.0000 C   0  0  0  0  0  0  0  0  0  0  0  0
    3.5000   -4.4709    0.0000 C   0  0  0  0  0  0  0  0  0  0  0  0
    2.0000   -3.6048    0.0000 C   0  0  0  0  0  0  0  0  0  0  0  0
   10.5673    1.6959    0.0000 C   0  0  0  0  0  0  0  0  0  0  0  0
    2.5000   -4.4709    0.0000 C   0  0  0  0  0  0  0  0  0  0  0  0
   11.5458    1.9022    0.0000 C   0  0  0  0  0  0  0  0  0  0  0  0
   12.8349    3.0589    0.0000 C   0  0  0  0  0  0  0  0  0  0  0  0
    6.2646   -0.8979    0.0000 H   0  0  0  0  0  0  0  0  0  0  0  0
    5.4675   -0.8979    0.0000 H   0  0  0  0  0  0  0  0  0  0  0  0
    7.2408   -1.1287    0.0000 H   0  0  0  0  0  0  0  0  0  0  0  0
    4.3894   -2.7651    0.0000 H   0  0  0  0  0  0  0  0  0  0  0  0
    4.7880   -3.4554    0.0000 H   0  0  0  0  0  0  0  0  0  0  0  0
    5.4675   -3.8478    0.0000 H   0  0  0  0  0  0  0  0  0  0  0  0
    6.2646   -3.8478    0.0000 H   0  0  0  0  0  0  0  0  0  0  0  0
    7.4272   -3.7444    0.0000 H   0  0  0  0  0  0  0  0  0  0  0  0
    8.2156   -3.4868    0.0000 H   0  0  0  0  0  0  0  0  0  0  0  0
    8.7228   -2.7875    0.0000 H   0  0  0  0  0  0  0  0  0  0  0  0
    8.7228   -1.9581    0.0000 H   0  0  0  0  0  0  0  0  0  0  0  0
    4.1077   -1.2622    0.0000 H   0  0  0  0  0  0  0  0  0  0  0  0
    3.4174   -1.6608    0.0000 H   0  0  0  0  0  0  0  0  0  0  0  0
    4.8100   -0.4698    0.0000 H   0  0  0  0  0  0  0  0  0  0  0  0
    3.8800   -1.0068    0.0000 H   0  0  0  0  0  0  0  0  0  0  0  0
    9.3815   -0.8728    0.0000 H   0  0  0  0  0  0  0  0  0  0  0  0
    9.6922    0.0777    0.0000 H   0  0  0  0  0  0  0  0  0  0  0  0
    4.6200   -3.6048    0.0000 H   0  0  0  0  0  0  0  0  0  0  0  0
    2.1900   -2.2019    0.0000 H   0  0  0  0  0  0  0  0  0  0  0  0
   10.2772    0.1258    0.0000 H   0  0  0  0  0  0  0  0  0  0  0  0
   10.8704    0.6581    0.0000 H   0  0  0  0  0  0  0  0  0  0  0  0
    8.0633    1.5755    0.0000 H   0  0  0  0  0  0  0  0  0  0  0  0
    8.2277    0.7956    0.0000 H   0  0  0  0  0  0  0  0  0  0  0  0
   10.5467    2.3156    0.0000 H   0  0  0  0  0  0  0  0  0  0  0  0
    9.9534    1.7833    0.0000 H   0  0  0  0  0  0  0  0  0  0  0  0
    3.8100   -5.0078    0.0000 H   0  0  0  0  0  0  0  0  0  0  0  0
    1.3800   -3.6048    0.0000 H   0  0  0  0  0  0  0  0  0  0  0  0
    2.1900   -5.0078    0.0000 H   0  0  0  0  0  0  0  0  0  0  0  0
   11.5663    1.2825    0.0000 H   0  0  0  0  0  0  0  0  0  0  0  0
   12.1596    1.8148    0.0000 H   0  0  0  0  0  0  0  0  0  0  0  0
   13.7523    4.1373    0.0000 H   0  0  0  0  0  0  0  0  0  0  0  0
   12.7315    4.4709    0.0000 H   0  0  0  0  0  0  0  0  0  0  0  0
   14.1095    2.4424    0.0000 H   0  0  0  0  0  0  0  0  0  0  0  0
   13.3102    1.7253    0.0000 H   0  0  0  0  0  0  0  0  0  0  0  0
  1 24  1  0  0  0  0
  2 18  2  0  0  0  0
  3  4  1  0  0  0  0
  3 11  1  0  0  0  0
  3 12  1  0  0  0  0
  4 14  1  0  0  0  0
  4 15  1  0  0  0  0
 10  5  1  6  0  0  0
  5 44  1  0  0  0  0
  5 45  1  0  0  0  0
  6 18  1  0  0  0  0
 20  6  1  6  0  0  0
  6 46  1  0  0  0  0
  7 29  1  0  0  0  0
  7 30  2  0  0  0  0
  8 30  1  0  0  0  0
  8 61  1  0  0  0  0
  8 62  1  0  0  0  0
  9 30  1  0  0  0  0
  9 63  1  0  0  0  0
  9 64  1  0  0  0  0
 10 11  1  0  0  0  0
 10 13  1  0  0  0  0
 10 17  1  0  0  0  0
 11 31  1  0  0  0  0
 11 32  1  0  0  0  0
 12 16  1  0  0  0  0
 12 18  1  6  0  0  0
 12 33  1  0  0  0  0
 13 14  1  0  0  0  0
 13 34  1  0  0  0  0
 13 35  1  0  0  0  0
 14 36  1  0  0  0  0
 14 37  1  0  0  0  0
 15 16  1  0  0  0  0
 15 38  1  0  0  0  0
 15 39  1  0  0  0  0
 16 40  1  0  0  0  0
 16 41  1  0  0  0  0
 17 19  1  0  0  0  0
 17 42  1  0  0  0  0
 17 43  1  0  0  0  0
 19 21  2  0  0  0  0
 19 22  1  0  0  0  0
 20 23  1  0  0  0  0
 20 24  1  0  0  0  0
 20 47  1  0  0  0  0
 21 25  1  0  0  0  0
 21 48  1  0  0  0  0
 22 26  2  0  0  0  0
 22 49  1  0  0  0  0
 23 27  1  0  0  0  0
 23 50  1  0  0  0  0
 23 51  1  0  0  0  0
 24 52  1  0  0  0  0
 24 53  1  0  0  0  0
 25 28  2  0  0  0  0
 25 56  1  0  0  0  0
 26 28  1  0  0  0  0
 26 57  1  0  0  0  0
 27 29  1  0  0  0  0
 27 54  1  0  0  0  0
 27 55  1  0  0  0  0
 28 58  1  0  0  0  0
 29 59  1  0  0  0  0
 29 60  1  0  0  0  0
M  END
> <PUBCHEM_COMPOUND_CID>
44278104

> <PUBCHEM_COMPOUND_CANONICALIZED>
1

> <PUBCHEM_CACTVS_COMPLEXITY>
594

> <PUBCHEM_CACTVS_HBOND_ACCEPTOR>
5

> <PUBCHEM_CACTVS_HBOND_DONOR>
4

> <PUBCHEM_CACTVS_ROTATABLE_BOND>
9

> <PUBCHEM_CACTVS_SUBSKEYS>
AAADcfB7oAAEAAAAAAAAAAAAAAAAAWAAAAA8QAAAAAAAAFgBAAAAHgIYAAAADKvBmEQxAILAAACoAiFSNAACAAEgAAAYiIGIAogIYDKB0THUIAAglgCIiAcUgMAOAAAAAAAAAAAAAAAAAAAAAAAAAAAAAA==

> <PUBCHEM_IUPAC_OPENEYE_NAME>
(3S,6S)-6-amino-6-benzyl-N-[(1S)-1-(chloromethyl)-4-guanidino-butyl]-1,2,3,5,7,8-hexahydropyrazolo[1,2-a]pyridazine-3-carboxamide

> <PUBCHEM_IUPAC_CAS_NAME>
(3S,6S)-6-amino-N-[(2S)-1-chloro-5-(diaminomethylideneamino)pentan-2-yl]-6-(phenylmethyl)-1,2,3,5,7,8-hexahydropyrazolo[1,2-a]pyridazine-3-carboxamide

> <PUBCHEM_IUPAC_NAME_MARKUP>
(3<I>S</I>,6<I>S</I>)-6-amino-6-benzyl-<I>N</I>-[(2<I>S</I>)-1-chloro-5-(diaminomethylideneamino)pentan-2-yl]-1,2,3,5,7,8-hexahydropyrazolo[1,2-a]pyridazine-3-carboxamide

> <PUBCHEM_IUPAC_NAME>
(3S,6S)-6-amino-6-benzyl-N-[(2S)-1-chloro-5-(diaminomethylideneamino)pentan-2-yl]-1,2,3,5,7,8-hexahydropyrazolo[1,2-a]pyridazine-3-carboxamide

> <PUBCHEM_IUPAC_SYSTEMATIC_NAME>
(3S,6S)-6-azanyl-N-[(2S)-5-[bis(azanyl)methylideneamino]-1-chloranyl-pentan-2-yl]-6-(phenylmethyl)-1,2,3,5,7,8-hexahydropyrazolo[1,2-a]pyridazine-3-carboxamide

> <PUBCHEM_IUPAC_TRADITIONAL_NAME>
(3S,6S)-6-amino-6-benzyl-N-[(1S)-1-(chloromethyl)-4-guanidino-butyl]-1,2,3,5,7,8-hexahydropyrazolo[1,2-a]pyridazine-3-carboxamide

> <PUBCHEM_IUPAC_INCHI>
InChI=1S/C21H34ClN7O/c22-14-17(7-4-10-26-20(23)24)27-19(30)18-8-11-28-12-9-21(25,15-29(18)28)13-16-5-2-1-3-6-16/h1-3,5-6,17-18H,4,7-15,25H2,(H,27,30)(H4,23,24,26)/t17-,18-,21+/m0/s1

> <PUBCHEM_IUPAC_INCHIKEY>
JSPAUBUYPPZXSG-BBTUJRGHSA-N

> <PUBCHEM_XLOGP3_AA>
0.9

> <PUBCHEM_EXACT_MASS>
435.2513364

> <PUBCHEM_MOLECULAR_FORMULA>
C21H34ClN7O

> <PUBCHEM_MOLECULAR_WEIGHT>
436.0

> <PUBCHEM_SMILES>
C1CN2CC[C@](CN2[C@@H]1C(=O)N[C@@H](CCCN=C(N)N)CCl)(CC3=CC=CC=C3)N

> <PUBCHEM_OPENEYE_CAN_SMILES>
C1CN2CCC(CN2C1C(=O)NC(CCCN=C(N)N)CCl)(CC3=CC=CC=C3)N

> <PUBCHEM_OPENEYE_ISO_SMILES>
C1CN2CC[C@](CN2[C@@H]1C(=O)N[C@@H](CCCN=C(N)N)CCl)(CC3=CC=CC=C3)N

> <PUBCHEM_CACTVS_TPSA>
126

> <PUBCHEM_MONOISOTOPIC_WEIGHT>
435.2513364

> <PUBCHEM_TOTAL_CHARGE>
0

> <PUBCHEM_HEAVY_ATOM_COUNT>
30

> <PUBCHEM_ATOM_DEF_STEREO_COUNT>
3

> <PUBCHEM_ATOM_UDEF_STEREO_COUNT>
0

> <PUBCHEM_BOND_DEF_STEREO_COUNT>
0

> <PUBCHEM_BOND_UDEF_STEREO_COUNT>
0

> <PUBCHEM_ISOTOPIC_ATOM_COUNT>
0

> <PUBCHEM_COMPONENT_COUNT>
1

> <PUBCHEM_CACTVS_TAUTO_COUNT>
-1

> <PUBCHEM_COORDINATE_TYPE>
1
5
255

> <PUBCHEM_BONDANNOTATIONS>
12  18  6
19  21  8
19  22  8
21  25  8
22  26  8
25  28  8
26  28  8
10  5  6
20  6  6

$$$$
