49830760
  -OEChem-03202500592D

 39 42  0     0  0  0  0  0  0999 V2000
    2.0000   -3.9962    0.0000 Cl  0  0  0  0  0  0  0  0  0  0  0  0
    7.0836   -0.4708    0.0000 S   0  0  0  0  0  0  0  0  0  0  0  0
    5.0000    1.2000    0.0000 O   0  0  0  0  0  0  0  0  0  0  0  0
    9.5687    0.3340    0.0000 N   0  0  0  0  0  0  0  0  0  0  0  0
    8.9809   -0.4750    0.0000 N   0  0  0  0  0  0  0  0  0  0  0  0
    5.0000   -0.5321    0.0000 N   0  0  0  0  0  0  0  0  0  0  0  0
    8.0298    0.8340    0.0000 C   0  0  0  0  0  0  0  0  0  0  0  0
    8.9809    1.1430    0.0000 C   0  0  0  0  0  0  0  0  0  0  0  0
    8.0298   -0.1660    0.0000 C   0  0  0  0  0  0  0  0  0  0  0  0
    7.0836    1.1387    0.0000 C   0  0  0  0  0  0  0  0  0  0  0  0
    6.5000    0.3340    0.0000 C   0  0  0  0  0  0  0  0  0  0  0  0
    9.2899    2.0940    0.0000 C   0  0  0  0  0  0  0  0  0  0  0  0
    4.0000   -0.5321    0.0000 C   0  0  0  0  0  0  0  0  0  0  0  0
    5.5000    0.3340    0.0000 C   0  0  0  0  0  0  0  0  0  0  0  0
    3.5000   -1.3981    0.0000 C   0  0  0  0  0  0  0  0  0  0  0  0
    8.6208    2.8372    0.0000 C   0  0  0  0  0  0  0  0  0  0  0  0
   10.2681    2.3020    0.0000 C   0  0  0  0  0  0  0  0  0  0  0  0
    8.9298    3.7882    0.0000 C   0  0  0  0  0  0  0  0  0  0  0  0
   10.5771    3.2530    0.0000 C   0  0  0  0  0  0  0  0  0  0  0  0
    4.0000   -2.2641    0.0000 C   0  0  0  0  0  0  0  0  0  0  0  0
    2.5000   -1.3981    0.0000 C   0  0  0  0  0  0  0  0  0  0  0  0
    9.9079    3.9962    0.0000 C   0  0  0  0  0  0  0  0  0  0  0  0
    3.5000   -3.1301    0.0000 C   0  0  0  0  0  0  0  0  0  0  0  0
    2.0000   -2.2641    0.0000 C   0  0  0  0  0  0  0  0  0  0  0  0
    2.5000   -3.1301    0.0000 C   0  0  0  0  0  0  0  0  0  0  0  0
    6.8910    1.7280    0.0000 H   0  0  0  0  0  0  0  0  0  0  0  0
   10.1887    0.3340    0.0000 H   0  0  0  0  0  0  0  0  0  0  0  0
    4.1077    0.0785    0.0000 H   0  0  0  0  0  0  0  0  0  0  0  0
    3.4174   -0.3200    0.0000 H   0  0  0  0  0  0  0  0  0  0  0  0
    5.3100   -1.0690    0.0000 H   0  0  0  0  0  0  0  0  0  0  0  0
    8.0143    2.7083    0.0000 H   0  0  0  0  0  0  0  0  0  0  0  0
   10.6829    1.8412    0.0000 H   0  0  0  0  0  0  0  0  0  0  0  0
    4.6200   -2.2641    0.0000 H   0  0  0  0  0  0  0  0  0  0  0  0
    2.1900   -0.8611    0.0000 H   0  0  0  0  0  0  0  0  0  0  0  0
    8.5149    4.2490    0.0000 H   0  0  0  0  0  0  0  0  0  0  0  0
   11.1835    3.3819    0.0000 H   0  0  0  0  0  0  0  0  0  0  0  0
   10.0995    4.5858    0.0000 H   0  0  0  0  0  0  0  0  0  0  0  0
    3.8100   -3.6671    0.0000 H   0  0  0  0  0  0  0  0  0  0  0  0
    1.3800   -2.2641    0.0000 H   0  0  0  0  0  0  0  0  0  0  0  0
  1 25  1  0  0  0  0
  2  9  1  0  0  0  0
  2 11  1  0  0  0  0
  3 14  2  0  0  0  0
  4  5  1  0  0  0  0
  4  8  1  0  0  0  0
  4 27  1  0  0  0  0
  5  9  2  0  0  0  0
  6 13  1  0  0  0  0
  6 14  1  0  0  0  0
  6 30  1  0  0  0  0
  7  8  2  0  0  0  0
  7  9  1  0  0  0  0
  7 10  1  0  0  0  0
  8 12  1  0  0  0  0
 10 11  2  0  0  0  0
 10 26  1  0  0  0  0
 11 14  1  0  0  0  0
 12 16  2  0  0  0  0
 12 17  1  0  0  0  0
 13 15  1  0  0  0  0
 13 28  1  0  0  0  0
 13 29  1  0  0  0  0
 15 20  2  0  0  0  0
 15 21  1  0  0  0  0
 16 18  1  0  0  0  0
 16 31  1  0  0  0  0
 17 19  2  0  0  0  0
 17 32  1  0  0  0  0
 18 22  2  0  0  0  0
 18 35  1  0  0  0  0
 19 22  1  0  0  0  0
 19 36  1  0  0  0  0
 20 23  1  0  0  0  0
 20 33  1  0  0  0  0
 21 24  2  0  0  0  0
 21 34  1  0  0  0  0
 22 37  1  0  0  0  0
 23 25  2  0  0  0  0
 23 38  1  0  0  0  0
 24 25  1  0  0  0  0
 24 39  1  0  0  0  0
M  END
> <PUBCHEM_COMPOUND_CID>
49830760

> <PUBCHEM_COMPOUND_CANONICALIZED>
1

> <PUBCHEM_CACTVS_COMPLEXITY>
466

> <PUBCHEM_CACTVS_HBOND_ACCEPTOR>
3

> <PUBCHEM_CACTVS_HBOND_DONOR>
2

> <PUBCHEM_CACTVS_ROTATABLE_BOND>
4

> <PUBCHEM_CACTVS_SUBSKEYS>
AAADccB7IABEAAAAAAAAAAAAAAAAAWJAAAAwYAAAAAAWAAAB/AAAHgYYAAAADArB3iQwgdLjAAiuAyVyUACTBIBkDRBYubkoRtgIILKh19GEpQxgjgCoyYcYicCeBAAAAAAAAAAIAAAAAAAAAAAAAAAAAA==

> <PUBCHEM_IUPAC_OPENEYE_NAME>
N-[(4-chlorophenyl)methyl]-3-phenyl-2H-thieno[2,3-c]pyrazole-5-carboxamide

> <PUBCHEM_IUPAC_CAS_NAME>
N-[(4-chlorophenyl)methyl]-3-phenyl-2H-thieno[2,3-c]pyrazole-5-carboxamide

> <PUBCHEM_IUPAC_NAME_MARKUP>
<I>N</I>-[(4-chlorophenyl)methyl]-3-phenyl-2<I>H</I>-thieno[2,3-c]pyrazole-5-carboxamide

> <PUBCHEM_IUPAC_NAME>
N-[(4-chlorophenyl)methyl]-3-phenyl-2H-thieno[2,3-c]pyrazole-5-carboxamide

> <PUBCHEM_IUPAC_SYSTEMATIC_NAME>
N-[(4-chlorophenyl)methyl]-3-phenyl-2H-thieno[2,3-c]pyrazole-5-carboxamide

> <PUBCHEM_IUPAC_TRADITIONAL_NAME>
N-(4-chlorobenzyl)-3-phenyl-2H-thieno[2,3-c]pyrazole-5-carboxamide

> <PUBCHEM_IUPAC_INCHI>
InChI=1S/C19H14ClN3OS/c20-14-8-6-12(7-9-14)11-21-18(24)16-10-15-17(22-23-19(15)25-16)13-4-2-1-3-5-13/h1-10H,11H2,(H,21,24)(H,22,23)

> <PUBCHEM_IUPAC_INCHIKEY>
WVFWTUJEHMVUBG-UHFFFAOYSA-N

> <PUBCHEM_XLOGP3_AA>
5

> <PUBCHEM_EXACT_MASS>
367.0546109

> <PUBCHEM_MOLECULAR_FORMULA>
C19H14ClN3OS

> <PUBCHEM_MOLECULAR_WEIGHT>
367.9

> <PUBCHEM_SMILES>
C1=CC=C(C=C1)C2=C3C=C(SC3=NN2)C(=O)NCC4=CC=C(C=C4)Cl

> <PUBCHEM_OPENEYE_CAN_SMILES>
C1=CC=C(C=C1)C2=C3C=C(SC3=NN2)C(=O)NCC4=CC=C(C=C4)Cl

> <PUBCHEM_OPENEYE_ISO_SMILES>
C1=CC=C(C=C1)C2=C3C=C(SC3=NN2)C(=O)NCC4=CC=C(C=C4)Cl

> <PUBCHEM_CACTVS_TPSA>
86

> <PUBCHEM_MONOISOTOPIC_WEIGHT>
367.0546109

> <PUBCHEM_TOTAL_CHARGE>
0

> <PUBCHEM_HEAVY_ATOM_COUNT>
25

> <PUBCHEM_ATOM_DEF_STEREO_COUNT>
0

> <PUBCHEM_ATOM_UDEF_STEREO_COUNT>
0

> <PUBCHEM_BOND_DEF_STEREO_COUNT>
0

> <PUBCHEM_BOND_UDEF_STEREO_COUNT>
0

> <PUBCHEM_ISOTOPIC_ATOM_COUNT>
0

> <PUBCHEM_COMPONENT_COUNT>
1

> <PUBCHEM_CACTVS_TAUTO_COUNT>
-1

> <PUBCHEM_COORDINATE_TYPE>
1
5
255

> <PUBCHEM_BONDANNOTATIONS>
10  11  8
12  16  8
12  17  8
15  20  8
15  21  8
16  18  8
17  19  8
18  22  8
19  22  8
2  11  8
2  9  8
20  23  8
21  24  8
23  25  8
24  25  8
4  5  8
4  8  8
5  9  8
7  10  8
7  8  8
7  9  8

$$$$
