52942235
  -OEChem-03192523452D

 38 40  0     0  0  0  0  0  0999 V2000
    7.2566    1.3978    0.0000 Cl  0  0  0  0  0  0  0  0  0  0  0  0
    6.8994    3.0926    0.0000 O   0  0  0  0  0  0  0  0  0  0  0  0
    4.6783   -2.5252    0.0000 N   0  0  0  0  0  0  0  0  0  0  0  0
    5.2619   -1.7204    0.0000 N   0  0  0  0  0  0  0  0  0  0  0  0
    2.8660   -2.7204    0.0000 N   0  0  0  0  0  0  0  0  0  0  0  0
    2.0000   -1.2204    0.0000 N   0  0  0  0  0  0  0  0  0  0  0  0
    2.8660    0.2796    0.0000 N   0  0  0  0  0  0  0  0  0  0  0  0
    5.2531    3.6307    0.0000 N   0  0  0  0  0  0  0  0  0  0  0  0
    4.9889   -3.4757    0.0000 C   0  0  0  0  0  0  0  0  0  0  0  0
    3.7320   -2.2204    0.0000 C   0  0  0  0  0  0  0  0  0  0  0  0
    3.7320   -1.2204    0.0000 C   0  0  0  0  0  0  0  0  0  0  0  0
    4.6783   -0.9157    0.0000 C   0  0  0  0  0  0  0  0  0  0  0  0
    5.9674   -3.6819    0.0000 C   0  0  0  0  0  0  0  0  0  0  0  0
    4.3211   -4.2200    0.0000 C   0  0  0  0  0  0  0  0  0  0  0  0
    4.9889    0.0348    0.0000 C   0  0  0  0  0  0  0  0  0  0  0  0
    2.8660   -0.7204    0.0000 C   0  0  0  0  0  0  0  0  0  0  0  0
    5.9674    0.2410    0.0000 C   0  0  0  0  0  0  0  0  0  0  0  0
    4.3211    0.7791    0.0000 C   0  0  0  0  0  0  0  0  0  0  0  0
    2.0000   -2.2204    0.0000 C   0  0  0  0  0  0  0  0  0  0  0  0
    6.2781    1.1916    0.0000 C   0  0  0  0  0  0  0  0  0  0  0  0
    4.6318    1.7296    0.0000 C   0  0  0  0  0  0  0  0  0  0  0  0
    5.6103    1.9358    0.0000 C   0  0  0  0  0  0  0  0  0  0  0  0
    5.9209    2.8864    0.0000 C   0  0  0  0  0  0  0  0  0  0  0  0
    5.1815   -4.0650    0.0000 H   0  0  0  0  0  0  0  0  0  0  0  0
    5.8396   -4.2886    0.0000 H   0  0  0  0  0  0  0  0  0  0  0  0
    6.5741   -3.8098    0.0000 H   0  0  0  0  0  0  0  0  0  0  0  0
    6.0953   -3.0752    0.0000 H   0  0  0  0  0  0  0  0  0  0  0  0
    3.8596   -3.8059    0.0000 H   0  0  0  0  0  0  0  0  0  0  0  0
    3.9070   -4.6815    0.0000 H   0  0  0  0  0  0  0  0  0  0  0  0
    4.7826   -4.6341    0.0000 H   0  0  0  0  0  0  0  0  0  0  0  0
    6.3815   -0.2204    0.0000 H   0  0  0  0  0  0  0  0  0  0  0  0
    3.7144    0.6513    0.0000 H   0  0  0  0  0  0  0  0  0  0  0  0
    1.4631   -2.5304    0.0000 H   0  0  0  0  0  0  0  0  0  0  0  0
    4.2177    2.1911    0.0000 H   0  0  0  0  0  0  0  0  0  0  0  0
    2.3291    0.5896    0.0000 H   0  0  0  0  0  0  0  0  0  0  0  0
    3.4030    0.5896    0.0000 H   0  0  0  0  0  0  0  0  0  0  0  0
    5.4457    4.2200    0.0000 H   0  0  0  0  0  0  0  0  0  0  0  0
    4.6464    3.5028    0.0000 H   0  0  0  0  0  0  0  0  0  0  0  0
  1 20  1  0  0  0  0
  2 23  2  0  0  0  0
  3  4  1  0  0  0  0
  3  9  1  0  0  0  0
  3 10  1  0  0  0  0
  4 12  2  0  0  0  0
  5 10  2  0  0  0  0
  5 19  1  0  0  0  0
  6 16  1  0  0  0  0
  6 19  2  0  0  0  0
  7 16  1  0  0  0  0
  7 35  1  0  0  0  0
  7 36  1  0  0  0  0
  8 23  1  0  0  0  0
  8 37  1  0  0  0  0
  8 38  1  0  0  0  0
  9 13  1  0  0  0  0
  9 14  1  0  0  0  0
  9 24  1  0  0  0  0
 10 11  1  0  0  0  0
 11 12  1  0  0  0  0
 11 16  2  0  0  0  0
 12 15  1  0  0  0  0
 13 25  1  0  0  0  0
 13 26  1  0  0  0  0
 13 27  1  0  0  0  0
 14 28  1  0  0  0  0
 14 29  1  0  0  0  0
 14 30  1  0  0  0  0
 15 17  2  0  0  0  0
 15 18  1  0  0  0  0
 17 20  1  0  0  0  0
 17 31  1  0  0  0  0
 18 21  2  0  0  0  0
 18 32  1  0  0  0  0
 19 33  1  0  0  0  0
 20 22  2  0  0  0  0
 21 22  1  0  0  0  0
 21 34  1  0  0  0  0
 22 23  1  0  0  0  0
M  END
> <PUBCHEM_COMPOUND_CID>
52942235

> <PUBCHEM_COMPOUND_CANONICALIZED>
1

> <PUBCHEM_CACTVS_COMPLEXITY>
450

> <PUBCHEM_CACTVS_HBOND_ACCEPTOR>
5

> <PUBCHEM_CACTVS_HBOND_DONOR>
2

> <PUBCHEM_CACTVS_ROTATABLE_BOND>
3

> <PUBCHEM_CACTVS_SUBSKEYS>
AAADccBzoAAEAAAAAAAAAAAAAAAAAWAAAAA8QAAAAAAAAFgB/AAAHgIYAAAADCrBnyQ3sN5IEACqAydzdACShCs1haAd2CEoRtiIKLLB39GEpQhoiALIzacYiMCOQAAAIAABAACAAABAAAIAAAAAAAAAAA==

> <PUBCHEM_IUPAC_OPENEYE_NAME>
4-(4-amino-1-isopropyl-pyrazolo[3,4-d]pyrimidin-3-yl)-2-chloro-benzamide

> <PUBCHEM_IUPAC_CAS_NAME>
4-(4-amino-1-propan-2-yl-3-pyrazolo[3,4-d]pyrimidinyl)-2-chlorobenzamide

> <PUBCHEM_IUPAC_NAME_MARKUP>
4-(4-amino-1-propan-2-ylpyrazolo[3,4-d]pyrimidin-3-yl)-2-chlorobenzamide

> <PUBCHEM_IUPAC_NAME>
4-(4-amino-1-propan-2-ylpyrazolo[3,4-d]pyrimidin-3-yl)-2-chlorobenzamide

> <PUBCHEM_IUPAC_SYSTEMATIC_NAME>
4-(4-azanyl-1-propan-2-yl-pyrazolo[3,4-d]pyrimidin-3-yl)-2-chloranyl-benzamide

> <PUBCHEM_IUPAC_TRADITIONAL_NAME>
4-(4-amino-1-isopropyl-pyrazolo[3,4-d]pyrimidin-3-yl)-2-chloro-benzamide

> <PUBCHEM_IUPAC_INCHI>
InChI=1S/C15H15ClN6O/c1-7(2)22-15-11(13(17)19-6-20-15)12(21-22)8-3-4-9(14(18)23)10(16)5-8/h3-7H,1-2H3,(H2,18,23)(H2,17,19,20)

> <PUBCHEM_IUPAC_INCHIKEY>
NZELPIPZPVLYLT-UHFFFAOYSA-N

> <PUBCHEM_XLOGP3_AA>
1.7

> <PUBCHEM_EXACT_MASS>
330.0995868

> <PUBCHEM_MOLECULAR_FORMULA>
C15H15ClN6O

> <PUBCHEM_MOLECULAR_WEIGHT>
330.77

> <PUBCHEM_SMILES>
CC(C)N1C2=NC=NC(=C2C(=N1)C3=CC(=C(C=C3)C(=O)N)Cl)N

> <PUBCHEM_OPENEYE_CAN_SMILES>
CC(C)N1C2=NC=NC(=C2C(=N1)C3=CC(=C(C=C3)C(=O)N)Cl)N

> <PUBCHEM_OPENEYE_ISO_SMILES>
CC(C)N1C2=NC=NC(=C2C(=N1)C3=CC(=C(C=C3)C(=O)N)Cl)N

> <PUBCHEM_CACTVS_TPSA>
113

> <PUBCHEM_MONOISOTOPIC_WEIGHT>
330.0995868

> <PUBCHEM_TOTAL_CHARGE>
0

> <PUBCHEM_HEAVY_ATOM_COUNT>
23

> <PUBCHEM_ATOM_DEF_STEREO_COUNT>
0

> <PUBCHEM_ATOM_UDEF_STEREO_COUNT>
0

> <PUBCHEM_BOND_DEF_STEREO_COUNT>
0

> <PUBCHEM_BOND_UDEF_STEREO_COUNT>
0

> <PUBCHEM_ISOTOPIC_ATOM_COUNT>
0

> <PUBCHEM_COMPONENT_COUNT>
1

> <PUBCHEM_CACTVS_TAUTO_COUNT>
-1

> <PUBCHEM_COORDINATE_TYPE>
1
5
255

> <PUBCHEM_BONDANNOTATIONS>
10  11  8
11  12  8
11  16  8
15  17  8
15  18  8
17  20  8
18  21  8
20  22  8
21  22  8
3  10  8
3  4  8
4  12  8
5  10  8
5  19  8
6  16  8
6  19  8

$$$$
