49831024
  -OEChem-03202503492D

 45 50  0     1  0  0  0  0  0999 V2000
    2.9176   -4.0586    0.0000 F   0  0  0  0  0  0  0  0  0  0  0  0
    9.6987    4.0586    0.0000 F   0  0  0  0  0  0  0  0  0  0  0  0
    4.6660   -3.0240    0.0000 O   0  0  0  0  0  0  0  0  0  0  0  0
    2.9108    0.2490    0.0000 O   0  0  0  0  0  0  0  0  0  0  0  0
    4.6660   -0.0240    0.0000 N   0  0  0  0  0  0  0  0  0  0  0  0
    4.1660    1.5058    0.0000 N   0  0  0  0  0  0  0  0  0  0  0  0
    6.4493    0.3534    0.0000 N   0  0  0  0  0  0  0  0  0  0  0  0
    8.0956    0.8915    0.0000 N   0  0  0  0  0  0  0  0  0  0  0  0
    6.8064    2.0482    0.0000 N   0  0  0  0  0  0  0  0  0  0  0  0
    9.4895    0.0868    0.0000 N   0  0  0  0  0  0  0  0  0  0  0  0
    4.6660   -1.0240    0.0000 C   0  0  3  0  0  0  0  0  0  0  0  0
    5.5321   -1.5240    0.0000 C   0  0  0  0  0  0  0  0  0  0  0  0
    3.8000   -1.5240    0.0000 C   0  0  0  0  0  0  0  0  0  0  0  0
    5.5321   -2.5240    0.0000 C   0  0  0  0  0  0  0  0  0  0  0  0
    5.4708    0.5596    0.0000 C   0  0  0  0  0  0  0  0  0  0  0  0
    3.8000   -2.5240    0.0000 C   0  0  0  0  0  0  0  0  0  0  0  0
    3.8613    0.5596    0.0000 C   0  0  0  0  0  0  0  0  0  0  0  0
    5.1601    1.5102    0.0000 C   0  0  0  0  0  0  0  0  0  0  0  0
    2.9061   -0.9893    0.0000 C   0  0  0  0  0  0  0  0  0  0  0  0
    2.9061   -3.0586    0.0000 C   0  0  0  0  0  0  0  0  0  0  0  0
    2.0000   -1.5032    0.0000 C   0  0  0  0  0  0  0  0  0  0  0  0
    5.8280    2.2544    0.0000 C   0  0  0  0  0  0  0  0  0  0  0  0
    7.1171    1.0977    0.0000 C   0  0  0  0  0  0  0  0  0  0  0  0
    2.0000   -2.5448    0.0000 C   0  0  0  0  0  0  0  0  0  0  0  0
    8.8326    1.5586    0.0000 C   0  0  0  0  0  0  0  0  0  0  0  0
    9.6987    1.0586    0.0000 C   0  0  0  0  0  0  0  0  0  0  0  0
    8.5007   -0.0163    0.0000 C   0  0  0  0  0  0  0  0  0  0  0  0
    8.8326    2.5586    0.0000 C   0  0  0  0  0  0  0  0  0  0  0  0
   10.5647    1.5586    0.0000 C   0  0  0  0  0  0  0  0  0  0  0  0
    9.6987    3.0586    0.0000 C   0  0  0  0  0  0  0  0  0  0  0  0
   10.5647    2.5586    0.0000 C   0  0  0  0  0  0  0  0  0  0  0  0
    5.2030   -0.7140    0.0000 H   0  0  0  0  0  0  0  0  0  0  0  0
    6.1426   -1.6316    0.0000 H   0  0  0  0  0  0  0  0  0  0  0  0
    5.7441   -0.9414    0.0000 H   0  0  0  0  0  0  0  0  0  0  0  0
    5.7441   -3.1066    0.0000 H   0  0  0  0  0  0  0  0  0  0  0  0
    6.1426   -2.4163    0.0000 H   0  0  0  0  0  0  0  0  0  0  0  0
    2.9132   -0.3694    0.0000 H   0  0  0  0  0  0  0  0  0  0  0  0
    3.7999    2.0062    0.0000 H   0  0  0  0  0  0  0  0  0  0  0  0
    1.4643   -1.1911    0.0000 H   0  0  0  0  0  0  0  0  0  0  0  0
    5.6353    2.8438    0.0000 H   0  0  0  0  0  0  0  0  0  0  0  0
    1.4643   -2.8569    0.0000 H   0  0  0  0  0  0  0  0  0  0  0  0
    8.1907   -0.5532    0.0000 H   0  0  0  0  0  0  0  0  0  0  0  0
    8.2957    2.8686    0.0000 H   0  0  0  0  0  0  0  0  0  0  0  0
   11.1016    1.2486    0.0000 H   0  0  0  0  0  0  0  0  0  0  0  0
   11.1016    2.8686    0.0000 H   0  0  0  0  0  0  0  0  0  0  0  0
  1 20  1  0  0  0  0
  2 30  1  0  0  0  0
  3 14  1  0  0  0  0
  3 16  1  0  0  0  0
  4 17  2  0  0  0  0
  5 11  1  0  0  0  0
  5 15  1  0  0  0  0
  5 17  1  0  0  0  0
  6 17  1  0  0  0  0
  6 18  1  0  0  0  0
  6 38  1  0  0  0  0
  7 15  2  0  0  0  0
  7 23  1  0  0  0  0
  8 23  1  0  0  0  0
  8 25  1  0  0  0  0
  8 27  1  0  0  0  0
  9 22  1  0  0  0  0
  9 23  2  0  0  0  0
 10 26  1  0  0  0  0
 10 27  2  0  0  0  0
 11 12  1  0  0  0  0
 11 13  1  0  0  0  0
 11 32  1  0  0  0  0
 12 14  1  0  0  0  0
 12 33  1  0  0  0  0
 12 34  1  0  0  0  0
 13 16  2  0  0  0  0
 13 19  1  0  0  0  0
 14 35  1  0  0  0  0
 14 36  1  0  0  0  0
 15 18  1  0  0  0  0
 16 20  1  0  0  0  0
 18 22  2  0  0  0  0
 19 21  2  0  0  0  0
 19 37  1  0  0  0  0
 20 24  2  0  0  0  0
 21 24  1  0  0  0  0
 21 39  1  0  0  0  0
 22 40  1  0  0  0  0
 24 41  1  0  0  0  0
 25 26  2  0  0  0  0
 25 28  1  0  0  0  0
 26 29  1  0  0  0  0
 27 42  1  0  0  0  0
 28 30  2  0  0  0  0
 28 43  1  0  0  0  0
 29 31  2  0  0  0  0
 29 44  1  0  0  0  0
 30 31  1  0  0  0  0
 31 45  1  0  0  0  0
M  END
> <PUBCHEM_COMPOUND_CID>
49831024

> <PUBCHEM_COMPOUND_CANONICALIZED>
1

> <PUBCHEM_CACTVS_COMPLEXITY>
703

> <PUBCHEM_CACTVS_HBOND_ACCEPTOR>
7

> <PUBCHEM_CACTVS_HBOND_DONOR>
1

> <PUBCHEM_CACTVS_ROTATABLE_BOND>
2

> <PUBCHEM_CACTVS_SUBSKEYS>
AAADccB7sYAAAAAAAAAAAAAAAAAAAWLAAAA8aIEAAAAAAFiR/AAAHwAQAAAADCzhng499rfMFACoAzZndACCiC0xMqAJ2CA8fJiMbqLE+duWPCju1xPI6CeQwKAOAAAAAAAIACAAAAAAABAAQAAAAAAAAA==

> <PUBCHEM_IUPAC_OPENEYE_NAME>
2-(6-fluorobenzimidazol-1-yl)-9-(8-fluorochroman-4-yl)-7H-purin-8-one

> <PUBCHEM_IUPAC_CAS_NAME>
2-(6-fluoro-1-benzimidazolyl)-9-(8-fluoro-3,4-dihydro-2H-1-benzopyran-4-yl)-7H-purin-8-one

> <PUBCHEM_IUPAC_NAME_MARKUP>
2-(6-fluorobenzimidazol-1-yl)-9-(8-fluoro-3,4-dihydro-2<I>H</I>-chromen-4-yl)-7<I>H</I>-purin-8-one

> <PUBCHEM_IUPAC_NAME>
2-(6-fluorobenzimidazol-1-yl)-9-(8-fluoro-3,4-dihydro-2H-chromen-4-yl)-7H-purin-8-one

> <PUBCHEM_IUPAC_SYSTEMATIC_NAME>
2-(6-fluoranylbenzimidazol-1-yl)-9-(8-fluoranyl-3,4-dihydro-2H-chromen-4-yl)-7H-purin-8-one

> <PUBCHEM_IUPAC_TRADITIONAL_NAME>
2-(6-fluorobenzimidazol-1-yl)-9-(8-fluorochroman-4-yl)-7H-purin-8-one

> <PUBCHEM_IUPAC_INCHI>
InChI=1S/C21H14F2N6O2/c22-11-4-5-14-17(8-11)28(10-25-14)20-24-9-15-19(27-20)29(21(30)26-15)16-6-7-31-18-12(16)2-1-3-13(18)23/h1-5,8-10,16H,6-7H2,(H,26,30)

> <PUBCHEM_IUPAC_INCHIKEY>
DBXGGXLBTWZXBB-UHFFFAOYSA-N

> <PUBCHEM_XLOGP3_AA>
2.7

> <PUBCHEM_EXACT_MASS>
420.11463003

> <PUBCHEM_MOLECULAR_FORMULA>
C21H14F2N6O2

> <PUBCHEM_MOLECULAR_WEIGHT>
420.4

> <PUBCHEM_SMILES>
C1COC2=C(C1N3C4=NC(=NC=C4NC3=O)N5C=NC6=C5C=C(C=C6)F)C=CC=C2F

> <PUBCHEM_OPENEYE_CAN_SMILES>
C1COC2=C(C1N3C4=NC(=NC=C4NC3=O)N5C=NC6=C5C=C(C=C6)F)C=CC=C2F

> <PUBCHEM_OPENEYE_ISO_SMILES>
C1COC2=C(C1N3C4=NC(=NC=C4NC3=O)N5C=NC6=C5C=C(C=C6)F)C=CC=C2F

> <PUBCHEM_CACTVS_TPSA>
85.2

> <PUBCHEM_MONOISOTOPIC_WEIGHT>
420.11463003

> <PUBCHEM_TOTAL_CHARGE>
0

> <PUBCHEM_HEAVY_ATOM_COUNT>
31

> <PUBCHEM_ATOM_DEF_STEREO_COUNT>
0

> <PUBCHEM_ATOM_UDEF_STEREO_COUNT>
1

> <PUBCHEM_BOND_DEF_STEREO_COUNT>
0

> <PUBCHEM_BOND_UDEF_STEREO_COUNT>
0

> <PUBCHEM_ISOTOPIC_ATOM_COUNT>
0

> <PUBCHEM_COMPONENT_COUNT>
1

> <PUBCHEM_CACTVS_TAUTO_COUNT>
-1

> <PUBCHEM_COORDINATE_TYPE>
1
5
255

> <PUBCHEM_BONDANNOTATIONS>
10  26  8
10  27  8
13  16  8
13  19  8
15  18  8
16  20  8
18  22  8
19  21  8
20  24  8
21  24  8
25  26  8
25  28  8
26  29  8
28  30  8
29  31  8
30  31  8
11  5  3
5  15  8
5  17  8
6  17  8
6  18  8
7  15  8
7  23  8
8  25  8
8  27  8
9  22  8
9  23  8

$$$$
