64790
  -OEChem-03202501032D

 17 18  0     0  0  0  0  0  0999 V2000
    2.0000    1.0005    0.0000 Cl  0  0  0  0  0  0  0  0  0  0  0  0
    5.5443   -0.8042    0.0000 S   0  0  0  0  0  0  0  0  0  0  0  0
    6.3543   -1.3906    0.0000 O   0  0  0  0  0  0  0  0  0  0  0  0
    5.2369   -1.7558    0.0000 O   0  0  0  0  0  0  0  0  0  0  0  0
    5.8550    1.7558    0.0000 O   0  0  0  0  0  0  0  0  0  0  0  0
    6.1279    0.0005    0.0000 N   0  0  0  0  0  0  0  0  0  0  0  0
    4.5981   -0.4995    0.0000 C   0  0  0  0  0  0  0  0  0  0  0  0
    4.5981    0.5005    0.0000 C   0  0  0  0  0  0  0  0  0  0  0  0
    5.5443    0.8053    0.0000 C   0  0  0  0  0  0  0  0  0  0  0  0
    3.7320   -0.9995    0.0000 C   0  0  0  0  0  0  0  0  0  0  0  0
    3.7320    1.0005    0.0000 C   0  0  0  0  0  0  0  0  0  0  0  0
    2.8660   -0.4995    0.0000 C   0  0  0  0  0  0  0  0  0  0  0  0
    2.8660    0.5005    0.0000 C   0  0  0  0  0  0  0  0  0  0  0  0
    6.7479    0.0005    0.0000 H   0  0  0  0  0  0  0  0  0  0  0  0
    3.7320   -1.6195    0.0000 H   0  0  0  0  0  0  0  0  0  0  0  0
    3.7320    1.6205    0.0000 H   0  0  0  0  0  0  0  0  0  0  0  0
    2.3291   -0.8095    0.0000 H   0  0  0  0  0  0  0  0  0  0  0  0
  1 13  1  0  0  0  0
  2  3  2  0  0  0  0
  2  4  2  0  0  0  0
  2  6  1  0  0  0  0
  2  7  1  0  0  0  0
  5  9  2  0  0  0  0
  6  9  1  0  0  0  0
  6 14  1  0  0  0  0
  7  8  2  0  0  0  0
  7 10  1  0  0  0  0
  8  9  1  0  0  0  0
  8 11  1  0  0  0  0
 10 12  2  0  0  0  0
 10 15  1  0  0  0  0
 11 13  2  0  0  0  0
 11 16  1  0  0  0  0
 12 13  1  0  0  0  0
 12 17  1  0  0  0  0
M  END
> <PUBCHEM_COMPOUND_CID>
64790

> <PUBCHEM_COMPOUND_CANONICALIZED>
1

> <PUBCHEM_CACTVS_COMPLEXITY>
334

> <PUBCHEM_CACTVS_HBOND_ACCEPTOR>
3

> <PUBCHEM_CACTVS_HBOND_DONOR>
1

> <PUBCHEM_CACTVS_ROTATABLE_BOND>
0

> <PUBCHEM_CACTVS_SUBSKEYS>
AAADcYBiMABEAAAAAAAAAAAAAAAAAWAAAAAwAAAAAAAAAFgBAAAAHgYQQAAADAKB2CAwAYBAAAKIAiFSEHDCABAkBQAIiBkABsgIIDKBlxGAIQBggAAIiYcYiACOAAIAIAAEAAAABABAAAgAAAAAAAAAAA==

> <PUBCHEM_IUPAC_OPENEYE_NAME>
5-chloro-1,1-dioxo-1,2-benzothiazol-3-one

> <PUBCHEM_IUPAC_CAS_NAME>
5-chloro-1,1-dioxo-1,2-benzothiazol-3-one

> <PUBCHEM_IUPAC_NAME_MARKUP>
5-chloro-1,1-dioxo-1,2-benzothiazol-3-one

> <PUBCHEM_IUPAC_NAME>
5-chloro-1,1-dioxo-1,2-benzothiazol-3-one

> <PUBCHEM_IUPAC_SYSTEMATIC_NAME>
5-chloranyl-1,1-bis(oxidanylidene)-1,2-benzothiazol-3-one

> <PUBCHEM_IUPAC_TRADITIONAL_NAME>
5-chloro-1,1-diketo-1,2-benzothiazol-3-one

> <PUBCHEM_IUPAC_INCHI>
InChI=1S/C7H4ClNO3S/c8-4-1-2-6-5(3-4)7(10)9-13(6,11)12/h1-3H,(H,9,10)

> <PUBCHEM_IUPAC_INCHIKEY>
WGKQCRDCROUYLI-UHFFFAOYSA-N

> <PUBCHEM_XLOGP3>
1.5

> <PUBCHEM_EXACT_MASS>
216.9600419

> <PUBCHEM_MOLECULAR_FORMULA>
C7H4ClNO3S

> <PUBCHEM_MOLECULAR_WEIGHT>
217.63

> <PUBCHEM_SMILES>
C1=CC2=C(C=C1Cl)C(=O)NS2(=O)=O

> <PUBCHEM_OPENEYE_CAN_SMILES>
C1=CC2=C(C=C1Cl)C(=O)NS2(=O)=O

> <PUBCHEM_OPENEYE_ISO_SMILES>
C1=CC2=C(C=C1Cl)C(=O)NS2(=O)=O

> <PUBCHEM_CACTVS_TPSA>
71.6

> <PUBCHEM_MONOISOTOPIC_WEIGHT>
216.9600419

> <PUBCHEM_TOTAL_CHARGE>
0

> <PUBCHEM_HEAVY_ATOM_COUNT>
13

> <PUBCHEM_ATOM_DEF_STEREO_COUNT>
0

> <PUBCHEM_ATOM_UDEF_STEREO_COUNT>
0

> <PUBCHEM_BOND_DEF_STEREO_COUNT>
0

> <PUBCHEM_BOND_UDEF_STEREO_COUNT>
0

> <PUBCHEM_ISOTOPIC_ATOM_COUNT>
0

> <PUBCHEM_COMPONENT_COUNT>
1

> <PUBCHEM_CACTVS_TAUTO_COUNT>
-1

> <PUBCHEM_COORDINATE_TYPE>
1
5
255

> <PUBCHEM_BONDANNOTATIONS>
10  12  8
11  13  8
12  13  8
7  10  8
7  8  8
8  11  8

$$$$
