44328745
  -OEChem-03202507352D

 42 44  0     0  0  0  0  0  0999 V2000
    6.5406    4.5318    0.0000 O   0  0  0  0  0  0  0  0  0  0  0  0
    8.6097    1.6839    0.0000 O   0  0  0  0  0  0  0  0  0  0  0  0
    4.6783    1.9669    0.0000 N   0  0  0  0  0  0  0  0  0  0  0  0
    6.5406    1.0116    0.0000 N   0  0  0  0  0  0  0  0  0  0  0  0
    7.8007    3.2717    0.0000 N   0  0  0  0  0  0  0  0  0  0  0  0
    7.5699   -1.4257    0.0000 N   0  0  0  0  0  0  0  0  0  0  0  0
    7.6210   -4.0710    0.0000 N   0  0  0  0  0  0  0  0  0  0  0  0
    6.2619    2.7717    0.0000 C   0  0  0  0  0  0  0  0  0  0  0  0
    5.2619    2.7717    0.0000 C   0  0  0  0  0  0  0  0  0  0  0  0
    6.8497    1.9627    0.0000 C   0  0  0  0  0  0  0  0  0  0  0  0
    7.2098    0.2685    0.0000 C   0  0  0  0  0  0  0  0  0  0  0  0
    3.7320    2.2717    0.0000 C   0  0  0  0  0  0  0  0  0  0  0  0
    3.7320    3.2717    0.0000 C   0  0  0  0  0  0  0  0  0  0  0  0
    4.6783    3.5764    0.0000 C   0  0  0  0  0  0  0  0  0  0  0  0
    6.9008   -0.6826    0.0000 C   0  0  0  0  0  0  0  0  0  0  0  0
    6.8497    3.5807    0.0000 C   0  0  0  0  0  0  0  0  0  0  0  0
    7.8007    2.2717    0.0000 C   0  0  0  0  0  0  0  0  0  0  0  0
    2.8660    1.7717    0.0000 C   0  0  0  0  0  0  0  0  0  0  0  0
    2.8660    3.7717    0.0000 C   0  0  0  0  0  0  0  0  0  0  0  0
    7.2609   -2.3768    0.0000 C   0  0  0  0  0  0  0  0  0  0  0  0
    2.0000    2.2717    0.0000 C   0  0  0  0  0  0  0  0  0  0  0  0
    2.0000    3.2717    0.0000 C   0  0  0  0  0  0  0  0  0  0  0  0
    7.9300   -3.1199    0.0000 C   0  0  0  0  0  0  0  0  0  0  0  0
    7.7572   -0.0226    0.0000 H   0  0  0  0  0  0  0  0  0  0  0  0
    7.5915    0.7570    0.0000 H   0  0  0  0  0  0  0  0  0  0  0  0
    4.8709    1.3776    0.0000 H   0  0  0  0  0  0  0  0  0  0  0  0
    4.8709    4.1657    0.0000 H   0  0  0  0  0  0  0  0  0  0  0  0
    5.9342    0.8827    0.0000 H   0  0  0  0  0  0  0  0  0  0  0  0
    6.3533   -0.3915    0.0000 H   0  0  0  0  0  0  0  0  0  0  0  0
    6.5190   -1.1712    0.0000 H   0  0  0  0  0  0  0  0  0  0  0  0
    8.3023    3.6361    0.0000 H   0  0  0  0  0  0  0  0  0  0  0  0
    8.1763   -1.2968    0.0000 H   0  0  0  0  0  0  0  0  0  0  0  0
    6.7134   -2.0857    0.0000 H   0  0  0  0  0  0  0  0  0  0  0  0
    6.8792   -2.8654    0.0000 H   0  0  0  0  0  0  0  0  0  0  0  0
    2.8660    1.1517    0.0000 H   0  0  0  0  0  0  0  0  0  0  0  0
    2.8660    4.3917    0.0000 H   0  0  0  0  0  0  0  0  0  0  0  0
    1.4631    1.9617    0.0000 H   0  0  0  0  0  0  0  0  0  0  0  0
    1.4631    3.5817    0.0000 H   0  0  0  0  0  0  0  0  0  0  0  0
    8.4774   -3.4110    0.0000 H   0  0  0  0  0  0  0  0  0  0  0  0
    8.3117   -2.6314    0.0000 H   0  0  0  0  0  0  0  0  0  0  0  0
    8.0358   -4.5318    0.0000 H   0  0  0  0  0  0  0  0  0  0  0  0
    7.0145   -4.1999    0.0000 H   0  0  0  0  0  0  0  0  0  0  0  0
  1 16  2  0  0  0  0
  2 17  2  0  0  0  0
  3  9  1  0  0  0  0
  3 12  1  0  0  0  0
  3 26  1  0  0  0  0
  4 10  1  0  0  0  0
  4 11  1  0  0  0  0
  4 28  1  0  0  0  0
  5 16  1  0  0  0  0
  5 17  1  0  0  0  0
  5 31  1  0  0  0  0
  6 15  1  0  0  0  0
  6 20  1  0  0  0  0
  6 32  1  0  0  0  0
  7 23  1  0  0  0  0
  7 41  1  0  0  0  0
  7 42  1  0  0  0  0
  8  9  1  0  0  0  0
  8 10  2  0  0  0  0
  8 16  1  0  0  0  0
  9 14  2  0  0  0  0
 10 17  1  0  0  0  0
 11 15  1  0  0  0  0
 11 24  1  0  0  0  0
 11 25  1  0  0  0  0
 12 13  1  0  0  0  0
 12 18  2  0  0  0  0
 13 14  1  0  0  0  0
 13 19  2  0  0  0  0
 14 27  1  0  0  0  0
 15 29  1  0  0  0  0
 15 30  1  0  0  0  0
 18 21  1  0  0  0  0
 18 35  1  0  0  0  0
 19 22  1  0  0  0  0
 19 36  1  0  0  0  0
 20 23  1  0  0  0  0
 20 33  1  0  0  0  0
 20 34  1  0  0  0  0
 21 22  2  0  0  0  0
 21 37  1  0  0  0  0
 22 38  1  0  0  0  0
 23 39  1  0  0  0  0
 23 40  1  0  0  0  0
M  END
> <PUBCHEM_COMPOUND_CID>
44328745

> <PUBCHEM_COMPOUND_CANONICALIZED>
1

> <PUBCHEM_CACTVS_COMPLEXITY>
505

> <PUBCHEM_CACTVS_HBOND_ACCEPTOR>
5

> <PUBCHEM_CACTVS_HBOND_DONOR>
5

> <PUBCHEM_CACTVS_ROTATABLE_BOND>
7

> <PUBCHEM_CACTVS_SUBSKEYS>
AAADceB7sAAAAAAAAAAAAAAAAAAAAWIAAAAwAAAAAAAAAFgB8AAAHgAQAAAADAjBngQwwPLJkACoAyVyVACCgCAhAiAImaG4ZNgIYPrA1bGUIAhglCDIyUcYiICOAAAAAAACAAAAAAAAAAQAAAAAAAAAAA==

> <PUBCHEM_IUPAC_OPENEYE_NAME>
3-[2-(2-aminoethylamino)ethylamino]-4-(1H-indol-2-yl)pyrrole-2,5-dione

> <PUBCHEM_IUPAC_CAS_NAME>
3-[2-(2-aminoethylamino)ethylamino]-4-(1H-indol-2-yl)pyrrole-2,5-dione

> <PUBCHEM_IUPAC_NAME_MARKUP>
3-[2-(2-aminoethylamino)ethylamino]-4-(1<I>H</I>-indol-2-yl)pyrrole-2,5-dione

> <PUBCHEM_IUPAC_NAME>
3-[2-(2-aminoethylamino)ethylamino]-4-(1H-indol-2-yl)pyrrole-2,5-dione

> <PUBCHEM_IUPAC_SYSTEMATIC_NAME>
3-[2-(2-azanylethylamino)ethylamino]-4-(1H-indol-2-yl)pyrrole-2,5-dione

> <PUBCHEM_IUPAC_TRADITIONAL_NAME>
3-[2-(2-aminoethylamino)ethylamino]-4-(1H-indol-2-yl)-3-pyrroline-2,5-quinone

> <PUBCHEM_IUPAC_INCHI>
InChI=1S/C16H19N5O2/c17-5-6-18-7-8-19-14-13(15(22)21-16(14)23)12-9-10-3-1-2-4-11(10)20-12/h1-4,9,18,20H,5-8,17H2,(H2,19,21,22,23)

> <PUBCHEM_IUPAC_INCHIKEY>
MDHMZQDVTVJSFO-UHFFFAOYSA-N

> <PUBCHEM_XLOGP3_AA>
-0.1

> <PUBCHEM_EXACT_MASS>
313.15387487

> <PUBCHEM_MOLECULAR_FORMULA>
C16H19N5O2

> <PUBCHEM_MOLECULAR_WEIGHT>
313.35

> <PUBCHEM_SMILES>
C1=CC=C2C(=C1)C=C(N2)C3=C(C(=O)NC3=O)NCCNCCN

> <PUBCHEM_OPENEYE_CAN_SMILES>
C1=CC=C2C(=C1)C=C(N2)C3=C(C(=O)NC3=O)NCCNCCN

> <PUBCHEM_OPENEYE_ISO_SMILES>
C1=CC=C2C(=C1)C=C(N2)C3=C(C(=O)NC3=O)NCCNCCN

> <PUBCHEM_CACTVS_TPSA>
112

> <PUBCHEM_MONOISOTOPIC_WEIGHT>
313.15387487

> <PUBCHEM_TOTAL_CHARGE>
0

> <PUBCHEM_HEAVY_ATOM_COUNT>
23

> <PUBCHEM_ATOM_DEF_STEREO_COUNT>
0

> <PUBCHEM_ATOM_UDEF_STEREO_COUNT>
0

> <PUBCHEM_BOND_DEF_STEREO_COUNT>
0

> <PUBCHEM_BOND_UDEF_STEREO_COUNT>
0

> <PUBCHEM_ISOTOPIC_ATOM_COUNT>
0

> <PUBCHEM_COMPONENT_COUNT>
1

> <PUBCHEM_CACTVS_TAUTO_COUNT>
-1

> <PUBCHEM_COORDINATE_TYPE>
1
5
255

> <PUBCHEM_BONDANNOTATIONS>
12  13  8
12  18  8
13  14  8
13  19  8
18  21  8
19  22  8
21  22  8
3  12  8
3  9  8
9  14  8

$$$$
