46864270
  -OEChem-03202500312D

 75 78  0     0  0  0  0  0  0999 V2000
    8.4651    6.0352    0.0000 F   0  0  0  0  0  0  0  0  0  0  0  0
    9.4651    7.0352    0.0000 F   0  0  0  0  0  0  0  0  0  0  0  0
   10.4651    6.0352    0.0000 F   0  0  0  0  0  0  0  0  0  0  0  0
    2.5369    3.0352    0.0000 O   0  0  0  0  0  0  0  0  0  0  0  0
   10.3312    1.5352    0.0000 O   0  0  0  0  0  0  0  0  0  0  0  0
   10.8469   -5.2081    0.0000 O   0  0  0  0  0  0  0  0  0  0  0  0
    6.8671    4.5352    0.0000 N   0  0  0  0  0  0  0  0  0  0  0  0
    5.1350    3.5352    0.0000 N   0  0  0  0  0  0  0  0  0  0  0  0
   11.1972    3.0352    0.0000 N   0  0  0  0  0  0  0  0  0  0  0  0
   12.1202   -3.5526    0.0000 N   0  0  0  0  0  0  0  0  0  0  0  0
   13.4292   -4.5036    0.0000 N   0  0  0  0  0  0  0  0  0  0  0  0
   12.2482   -6.2262    0.0000 N   0  0  0  0  0  0  0  0  0  0  0  0
    6.0010    5.0352    0.0000 C   0  0  0  0  0  0  0  0  0  0  0  0
    6.8671    3.5352    0.0000 C   0  0  0  0  0  0  0  0  0  0  0  0
    5.1350    4.5352    0.0000 C   0  0  0  0  0  0  0  0  0  0  0  0
    6.0010    3.0352    0.0000 C   0  0  0  0  0  0  0  0  0  0  0  0
    7.7331    5.0352    0.0000 C   0  0  0  0  0  0  0  0  0  0  0  0
    4.2690    3.0352    0.0000 C   0  0  0  0  0  0  0  0  0  0  0  0
    8.5991    4.5352    0.0000 C   0  0  0  0  0  0  0  0  0  0  0  0
    3.4030    3.5352    0.0000 C   0  0  0  0  0  0  0  0  0  0  0  0
    9.4651    5.0352    0.0000 C   0  0  0  0  0  0  0  0  0  0  0  0
    8.5991    3.5352    0.0000 C   0  0  0  0  0  0  0  0  0  0  0  0
   10.3312    4.5352    0.0000 C   0  0  0  0  0  0  0  0  0  0  0  0
    9.4651    3.0352    0.0000 C   0  0  0  0  0  0  0  0  0  0  0  0
    9.4651    6.0352    0.0000 C   0  0  0  0  0  0  0  0  0  0  0  0
   10.3312    3.5352    0.0000 C   0  0  0  0  0  0  0  0  0  0  0  0
   11.1972    2.0352    0.0000 C   0  0  0  0  0  0  0  0  0  0  0  0
   12.0632    1.5352    0.0000 C   0  0  0  0  0  0  0  0  0  0  0  0
   12.0632    0.5352    0.0000 C   0  0  0  0  0  0  0  0  0  0  0  0
   12.9292    2.0352    0.0000 C   0  0  0  0  0  0  0  0  0  0  0  0
   12.9292    0.0352    0.0000 C   0  0  0  0  0  0  0  0  0  0  0  0
   13.7953    0.5352    0.0000 C   0  0  0  0  0  0  0  0  0  0  0  0
   13.7953    1.5352    0.0000 C   0  0  0  0  0  0  0  0  0  0  0  0
   14.6613    0.0352    0.0000 C   0  0  0  0  0  0  0  0  0  0  0  0
   12.9292   -0.9648    0.0000 C   0  0  0  0  0  0  0  0  0  0  0  0
   12.9292   -2.9648    0.0000 C   0  0  0  0  0  0  0  0  0  0  0  0
   12.4292   -4.5036    0.0000 C   0  0  0  0  0  0  0  0  0  0  0  0
   12.9292   -1.9648    0.0000 C   0  0  0  0  0  0  0  0  0  0  0  0
   13.7383   -3.5526    0.0000 C   0  0  0  0  0  0  0  0  0  0  0  0
   11.1692   -3.2436    0.0000 C   0  0  0  0  0  0  0  0  0  0  0  0
   11.8415   -5.3126    0.0000 C   0  0  0  0  0  0  0  0  0  0  0  0
   11.6604   -7.0352    0.0000 C   0  0  0  0  0  0  0  0  0  0  0  0
    6.3996    5.5102    0.0000 H   0  0  0  0  0  0  0  0  0  0  0  0
    5.6025    5.5102    0.0000 H   0  0  0  0  0  0  0  0  0  0  0  0
    7.0791    2.9526    0.0000 H   0  0  0  0  0  0  0  0  0  0  0  0
    7.4776    3.6429    0.0000 H   0  0  0  0  0  0  0  0  0  0  0  0
    4.9230    5.1178    0.0000 H   0  0  0  0  0  0  0  0  0  0  0  0
    4.5244    4.4276    0.0000 H   0  0  0  0  0  0  0  0  0  0  0  0
    5.6025    2.5603    0.0000 H   0  0  0  0  0  0  0  0  0  0  0  0
    6.3996    2.5603    0.0000 H   0  0  0  0  0  0  0  0  0  0  0  0
    8.1316    5.5102    0.0000 H   0  0  0  0  0  0  0  0  0  0  0  0
    7.3346    5.5102    0.0000 H   0  0  0  0  0  0  0  0  0  0  0  0
    3.8705    2.5603    0.0000 H   0  0  0  0  0  0  0  0  0  0  0  0
    4.6675    2.5603    0.0000 H   0  0  0  0  0  0  0  0  0  0  0  0
    3.8015    4.0102    0.0000 H   0  0  0  0  0  0  0  0  0  0  0  0
    3.0044    4.0102    0.0000 H   0  0  0  0  0  0  0  0  0  0  0  0
    8.0622    3.2252    0.0000 H   0  0  0  0  0  0  0  0  0  0  0  0
   10.8681    4.8452    0.0000 H   0  0  0  0  0  0  0  0  0  0  0  0
    9.4651    2.4152    0.0000 H   0  0  0  0  0  0  0  0  0  0  0  0
    2.0000    3.3452    0.0000 H   0  0  0  0  0  0  0  0  0  0  0  0
   11.7341    3.3452    0.0000 H   0  0  0  0  0  0  0  0  0  0  0  0
   11.5263    0.2252    0.0000 H   0  0  0  0  0  0  0  0  0  0  0  0
   12.9292    2.6552    0.0000 H   0  0  0  0  0  0  0  0  0  0  0  0
   14.3322    1.8452    0.0000 H   0  0  0  0  0  0  0  0  0  0  0  0
   14.3513   -0.5017    0.0000 H   0  0  0  0  0  0  0  0  0  0  0  0
   15.1982   -0.2748    0.0000 H   0  0  0  0  0  0  0  0  0  0  0  0
   14.9713    0.5721    0.0000 H   0  0  0  0  0  0  0  0  0  0  0  0
   14.3279   -3.3610    0.0000 H   0  0  0  0  0  0  0  0  0  0  0  0
   11.3608   -2.6539    0.0000 H   0  0  0  0  0  0  0  0  0  0  0  0
   10.5795   -3.0520    0.0000 H   0  0  0  0  0  0  0  0  0  0  0  0
   10.9776   -3.8332    0.0000 H   0  0  0  0  0  0  0  0  0  0  0  0
   12.8648   -6.2910    0.0000 H   0  0  0  0  0  0  0  0  0  0  0  0
   11.1588   -6.6708    0.0000 H   0  0  0  0  0  0  0  0  0  0  0  0
   11.2960   -7.5368    0.0000 H   0  0  0  0  0  0  0  0  0  0  0  0
   12.1620   -7.3996    0.0000 H   0  0  0  0  0  0  0  0  0  0  0  0
  1 25  1  0  0  0  0
  2 25  1  0  0  0  0
  3 25  1  0  0  0  0
  4 20  1  0  0  0  0
  4 60  1  0  0  0  0
  5 27  2  0  0  0  0
  6 41  2  0  0  0  0
  7 13  1  0  0  0  0
  7 14  1  0  0  0  0
  7 17  1  0  0  0  0
  8 15  1  0  0  0  0
  8 16  1  0  0  0  0
  8 18  1  0  0  0  0
  9 26  1  0  0  0  0
  9 27  1  0  0  0  0
  9 61  1  0  0  0  0
 10 36  1  0  0  0  0
 10 37  1  0  0  0  0
 10 40  1  0  0  0  0
 11 37  2  0  0  0  0
 11 39  1  0  0  0  0
 12 41  1  0  0  0  0
 12 42  1  0  0  0  0
 12 72  1  0  0  0  0
 13 15  1  0  0  0  0
 13 43  1  0  0  0  0
 13 44  1  0  0  0  0
 14 16  1  0  0  0  0
 14 45  1  0  0  0  0
 14 46  1  0  0  0  0
 15 47  1  0  0  0  0
 15 48  1  0  0  0  0
 16 49  1  0  0  0  0
 16 50  1  0  0  0  0
 17 19  1  0  0  0  0
 17 51  1  0  0  0  0
 17 52  1  0  0  0  0
 18 20  1  0  0  0  0
 18 53  1  0  0  0  0
 18 54  1  0  0  0  0
 19 21  2  0  0  0  0
 19 22  1  0  0  0  0
 20 55  1  0  0  0  0
 20 56  1  0  0  0  0
 21 23  1  0  0  0  0
 21 25  1  0  0  0  0
 22 24  2  0  0  0  0
 22 57  1  0  0  0  0
 23 26  2  0  0  0  0
 23 58  1  0  0  0  0
 24 26  1  0  0  0  0
 24 59  1  0  0  0  0
 27 28  1  0  0  0  0
 28 29  2  0  0  0  0
 28 30  1  0  0  0  0
 29 31  1  0  0  0  0
 29 62  1  0  0  0  0
 30 33  2  0  0  0  0
 30 63  1  0  0  0  0
 31 32  2  0  0  0  0
 31 35  1  0  0  0  0
 32 33  1  0  0  0  0
 32 34  1  0  0  0  0
 33 64  1  0  0  0  0
 34 65  1  0  0  0  0
 34 66  1  0  0  0  0
 34 67  1  0  0  0  0
 35 38  3  0  0  0  0
 36 38  1  0  0  0  0
 36 39  2  0  0  0  0
 37 41  1  0  0  0  0
 39 68  1  0  0  0  0
 40 69  1  0  0  0  0
 40 70  1  0  0  0  0
 40 71  1  0  0  0  0
 42 73  1  0  0  0  0
 42 74  1  0  0  0  0
 42 75  1  0  0  0  0
M  END
> <PUBCHEM_COMPOUND_CID>
46864270

> <PUBCHEM_COMPOUND_CANONICALIZED>
1

> <PUBCHEM_CACTVS_COMPLEXITY>
992

> <PUBCHEM_CACTVS_HBOND_ACCEPTOR>
9

> <PUBCHEM_CACTVS_HBOND_DONOR>
3

> <PUBCHEM_CACTVS_ROTATABLE_BOND>
9

> <PUBCHEM_CACTVS_SUBSKEYS>
AAADcfB7sYAAAAAAAAAAAAAAAAAAAWAAAAA8YIAAAAAAAAAB0AAAHwAQCAAADAjhnxY/0JfMEgDoEzd3dAiCgC03EqAJ2IG4dMiKeDLAnbGUIQholgLYyacYiMCOyAACQAAQAACQAASAACAAAAAAAAAAAA==

> <PUBCHEM_IUPAC_OPENEYE_NAME>
5-[2-[5-[[4-[[4-(2-hydroxyethyl)piperazin-1-yl]methyl]-3-(trifluoromethyl)phenyl]carbamoyl]-2-methyl-phenyl]ethynyl]-N,1-dimethyl-imidazole-2-carboxamide

> <PUBCHEM_IUPAC_CAS_NAME>
5-[2-[5-[[4-[[4-(2-hydroxyethyl)-1-piperazinyl]methyl]-3-(trifluoromethyl)anilino]-oxomethyl]-2-methylphenyl]ethynyl]-N,1-dimethyl-2-imidazolecarboxamide

> <PUBCHEM_IUPAC_NAME_MARKUP>
5-[2-[5-[[4-[[4-(2-hydroxyethyl)piperazin-1-yl]methyl]-3-(trifluoromethyl)phenyl]carbamoyl]-2-methylphenyl]ethynyl]-<I>N</I>,1-dimethylimidazole-2-carboxamide

> <PUBCHEM_IUPAC_NAME>
5-[2-[5-[[4-[[4-(2-hydroxyethyl)piperazin-1-yl]methyl]-3-(trifluoromethyl)phenyl]carbamoyl]-2-methylphenyl]ethynyl]-N,1-dimethylimidazole-2-carboxamide

> <PUBCHEM_IUPAC_SYSTEMATIC_NAME>
5-[2-[5-[[4-[[4-(2-hydroxyethyl)piperazin-1-yl]methyl]-3-(trifluoromethyl)phenyl]carbamoyl]-2-methyl-phenyl]ethynyl]-N,1-dimethyl-imidazole-2-carboxamide

> <PUBCHEM_IUPAC_TRADITIONAL_NAME>
5-[2-[5-[[4-[[4-(2-hydroxyethyl)piperazino]methyl]-3-(trifluoromethyl)phenyl]carbamoyl]-2-methyl-phenyl]ethynyl]-N,1-dimethyl-imidazole-2-carboxamide

> <PUBCHEM_IUPAC_INCHI>
InChI=1S/C30H33F3N6O3/c1-20-4-5-22(16-21(20)7-9-25-18-35-27(37(25)3)29(42)34-2)28(41)36-24-8-6-23(26(17-24)30(31,32)33)19-39-12-10-38(11-13-39)14-15-40/h4-6,8,16-18,40H,10-15,19H2,1-3H3,(H,34,42)(H,36,41)

> <PUBCHEM_IUPAC_INCHIKEY>
SUXYGJZMCWKJJI-UHFFFAOYSA-N

> <PUBCHEM_XLOGP3_AA>
2.7

> <PUBCHEM_EXACT_MASS>
582.25662342

> <PUBCHEM_MOLECULAR_FORMULA>
C30H33F3N6O3

> <PUBCHEM_MOLECULAR_WEIGHT>
582.6

> <PUBCHEM_SMILES>
CC1=C(C=C(C=C1)C(=O)NC2=CC(=C(C=C2)CN3CCN(CC3)CCO)C(F)(F)F)C#CC4=CN=C(N4C)C(=O)NC

> <PUBCHEM_OPENEYE_CAN_SMILES>
CC1=C(C=C(C=C1)C(=O)NC2=CC(=C(C=C2)CN3CCN(CC3)CCO)C(F)(F)F)C#CC4=CN=C(N4C)C(=O)NC

> <PUBCHEM_OPENEYE_ISO_SMILES>
CC1=C(C=C(C=C1)C(=O)NC2=CC(=C(C=C2)CN3CCN(CC3)CCO)C(F)(F)F)C#CC4=CN=C(N4C)C(=O)NC

> <PUBCHEM_CACTVS_TPSA>
103

> <PUBCHEM_MONOISOTOPIC_WEIGHT>
582.25662342

> <PUBCHEM_TOTAL_CHARGE>
0

> <PUBCHEM_HEAVY_ATOM_COUNT>
42

> <PUBCHEM_ATOM_DEF_STEREO_COUNT>
0

> <PUBCHEM_ATOM_UDEF_STEREO_COUNT>
0

> <PUBCHEM_BOND_DEF_STEREO_COUNT>
0

> <PUBCHEM_BOND_UDEF_STEREO_COUNT>
0

> <PUBCHEM_ISOTOPIC_ATOM_COUNT>
0

> <PUBCHEM_COMPONENT_COUNT>
1

> <PUBCHEM_CACTVS_TAUTO_COUNT>
-1

> <PUBCHEM_COORDINATE_TYPE>
1
5
255

> <PUBCHEM_BONDANNOTATIONS>
10  36  8
10  37  8
11  37  8
11  39  8
19  21  8
19  22  8
21  23  8
22  24  8
23  26  8
24  26  8
28  29  8
28  30  8
29  31  8
30  33  8
31  32  8
32  33  8
36  39  8

$$$$
