11640390
  -OEChem-03202503272D

 55 60  0     0  0  0  0  0  0999 V2000
    3.2939   -3.2726    0.0000 O   0  0  0  0  0  0  0  0  0  0  0  0
    3.4059    0.7273    0.0000 N   0  0  0  0  0  0  0  0  0  0  0  0
    4.8785    0.0778    0.0000 N   0  0  0  0  0  0  0  0  0  0  0  0
    2.7846    2.6284    0.0000 N   0  0  0  0  0  0  0  0  0  0  0  0
    4.4309    3.1665    0.0000 N   0  0  0  0  0  0  0  0  0  0  0  0
    8.4735    1.0319    0.0000 N   0  0  0  0  0  0  0  0  0  0  0  0
    2.9323   -2.3403    0.0000 C   0  0  0  0  0  0  0  0  0  0  0  0
    3.5031   -1.0463    0.0000 C   0  0  0  0  0  0  0  0  0  0  0  0
    2.5707   -1.4079    0.0000 C   0  0  0  0  0  0  0  0  0  0  0  0
    3.8647   -1.9787    0.0000 C   0  0  0  0  0  0  0  0  0  0  0  0
    3.9066   -0.1314    0.0000 C   0  0  0  0  0  0  0  0  0  0  0  0
    2.0000   -2.7019    0.0000 C   0  0  0  0  0  0  0  0  0  0  0  0
    4.0737    1.4716    0.0000 C   0  0  0  0  0  0  0  0  0  0  0  0
    4.9815    1.0665    0.0000 C   0  0  0  0  0  0  0  0  0  0  0  0
    2.4274    0.9336    0.0000 C   0  0  0  0  0  0  0  0  0  0  0  0
    3.7631    2.4222    0.0000 C   0  0  0  0  0  0  0  0  0  0  0  0
    5.8475    1.5665    0.0000 C   0  0  0  0  0  0  0  0  0  0  0  0
    2.1167    1.8841    0.0000 C   0  0  0  0  0  0  0  0  0  0  0  0
    6.7136    1.0665    0.0000 C   0  0  0  0  0  0  0  0  0  0  0  0
    5.8475    2.5665    0.0000 C   0  0  0  0  0  0  0  0  0  0  0  0
    7.5796    1.5665    0.0000 C   0  0  0  0  0  0  0  0  0  0  0  0
    6.7136    3.0665    0.0000 C   0  0  0  0  0  0  0  0  0  0  0  0
    7.5796    2.5665    0.0000 C   0  0  0  0  0  0  0  0  0  0  0  0
    8.4735    3.1012    0.0000 C   0  0  0  0  0  0  0  0  0  0  0  0
    9.3796    1.5457    0.0000 C   0  0  0  0  0  0  0  0  0  0  0  0
    9.3796    2.5873    0.0000 C   0  0  0  0  0  0  0  0  0  0  0  0
   10.2437    1.0424    0.0000 C   0  0  0  0  0  0  0  0  0  0  0  0
   11.1116    1.5390    0.0000 C   0  0  0  0  0  0  0  0  0  0  0  0
   10.2398    0.0424    0.0000 C   0  0  0  0  0  0  0  0  0  0  0  0
   11.9757    1.0357    0.0000 C   0  0  0  0  0  0  0  0  0  0  0  0
   11.1039   -0.4609    0.0000 C   0  0  0  0  0  0  0  0  0  0  0  0
   11.9719    0.0357    0.0000 C   0  0  0  0  0  0  0  0  0  0  0  0
    4.1229   -1.0604    0.0000 H   0  0  0  0  0  0  0  0  0  0  0  0
    2.3466   -0.8299    0.0000 H   0  0  0  0  0  0  0  0  0  0  0  0
    1.9927   -1.6321    0.0000 H   0  0  0  0  0  0  0  0  0  0  0  0
    4.0889   -2.5567    0.0000 H   0  0  0  0  0  0  0  0  0  0  0  0
    4.4427   -1.7545    0.0000 H   0  0  0  0  0  0  0  0  0  0  0  0
    1.7758   -2.1238    0.0000 H   0  0  0  0  0  0  0  0  0  0  0  0
    1.4220   -2.9261    0.0000 H   0  0  0  0  0  0  0  0  0  0  0  0
    2.2242   -3.2799    0.0000 H   0  0  0  0  0  0  0  0  0  0  0  0
    2.9054   -3.7558    0.0000 H   0  0  0  0  0  0  0  0  0  0  0  0
    2.0133    0.4721    0.0000 H   0  0  0  0  0  0  0  0  0  0  0  0
    1.5100    2.0119    0.0000 H   0  0  0  0  0  0  0  0  0  0  0  0
    6.7136    0.4465    0.0000 H   0  0  0  0  0  0  0  0  0  0  0  0
    5.3106    2.8765    0.0000 H   0  0  0  0  0  0  0  0  0  0  0  0
    4.2383    3.7558    0.0000 H   0  0  0  0  0  0  0  0  0  0  0  0
    5.0376    3.0386    0.0000 H   0  0  0  0  0  0  0  0  0  0  0  0
    6.7136    3.6865    0.0000 H   0  0  0  0  0  0  0  0  0  0  0  0
    8.4664    3.7212    0.0000 H   0  0  0  0  0  0  0  0  0  0  0  0
    9.9153    2.8994    0.0000 H   0  0  0  0  0  0  0  0  0  0  0  0
   11.1140    2.1590    0.0000 H   0  0  0  0  0  0  0  0  0  0  0  0
    9.7017   -0.2655    0.0000 H   0  0  0  0  0  0  0  0  0  0  0  0
   12.5139    1.3436    0.0000 H   0  0  0  0  0  0  0  0  0  0  0  0
   11.1015   -1.0809    0.0000 H   0  0  0  0  0  0  0  0  0  0  0  0
   12.5076   -0.2764    0.0000 H   0  0  0  0  0  0  0  0  0  0  0  0
  1  7  1  0  0  0  0
  1 41  1  0  0  0  0
  2 11  1  0  0  0  0
  2 13  1  0  0  0  0
  2 15  1  0  0  0  0
  3 11  2  0  0  0  0
  3 14  1  0  0  0  0
  4 16  2  0  0  0  0
  4 18  1  0  0  0  0
  5 16  1  0  0  0  0
  5 46  1  0  0  0  0
  5 47  1  0  0  0  0
  6 21  1  0  0  0  0
  6 25  2  0  0  0  0
  7  9  1  0  0  0  0
  7 10  1  0  0  0  0
  7 12  1  0  0  0  0
  8  9  1  0  0  0  0
  8 10  1  0  0  0  0
  8 11  1  0  0  0  0
  8 33  1  0  0  0  0
  9 34  1  0  0  0  0
  9 35  1  0  0  0  0
 10 36  1  0  0  0  0
 10 37  1  0  0  0  0
 12 38  1  0  0  0  0
 12 39  1  0  0  0  0
 12 40  1  0  0  0  0
 13 14  2  0  0  0  0
 13 16  1  0  0  0  0
 14 17  1  0  0  0  0
 15 18  2  0  0  0  0
 15 42  1  0  0  0  0
 17 19  2  0  0  0  0
 17 20  1  0  0  0  0
 18 43  1  0  0  0  0
 19 21  1  0  0  0  0
 19 44  1  0  0  0  0
 20 22  2  0  0  0  0
 20 45  1  0  0  0  0
 21 23  2  0  0  0  0
 22 23  1  0  0  0  0
 22 48  1  0  0  0  0
 23 24  1  0  0  0  0
 24 26  2  0  0  0  0
 24 49  1  0  0  0  0
 25 26  1  0  0  0  0
 25 27  1  0  0  0  0
 26 50  1  0  0  0  0
 27 28  2  0  0  0  0
 27 29  1  0  0  0  0
 28 30  1  0  0  0  0
 28 51  1  0  0  0  0
 29 31  2  0  0  0  0
 29 52  1  0  0  0  0
 30 32  2  0  0  0  0
 30 53  1  0  0  0  0
 31 32  1  0  0  0  0
 31 54  1  0  0  0  0
 32 55  1  0  0  0  0
M  END
> <PUBCHEM_COMPOUND_CID>
11640390

> <PUBCHEM_COMPOUND_CANONICALIZED>
1

> <PUBCHEM_CACTVS_COMPLEXITY>
663

> <PUBCHEM_CACTVS_HBOND_ACCEPTOR>
5

> <PUBCHEM_CACTVS_HBOND_DONOR>
2

> <PUBCHEM_CACTVS_ROTATABLE_BOND>
3

> <PUBCHEM_CACTVS_SUBSKEYS>
AAADceB7oAAAAAAAAAAAAAAAAABgAWAAAAA8eIEAAAAAAFix/gAAHgAQCAAADUzBnwQ/8PdMGgCgAzZnZACCgC0xEqAJ2CA4dJiIaOLA2dGUZAhsgALIyCcwgMAOQAAAQAACAACAAACAAAQAAAAAAAAAAA==

> <PUBCHEM_IUPAC_OPENEYE_NAME>
3-[8-amino-1-(2-phenyl-7-quinolyl)imidazo[1,5-a]pyrazin-3-yl]-1-methyl-cyclobutanol

> <PUBCHEM_IUPAC_CAS_NAME>
3-[8-amino-1-(2-phenyl-7-quinolinyl)-3-imidazo[1,5-a]pyrazinyl]-1-methyl-1-cyclobutanol

> <PUBCHEM_IUPAC_NAME_MARKUP>
3-[8-amino-1-(2-phenylquinolin-7-yl)imidazo[1,5-a]pyrazin-3-yl]-1-methylcyclobutan-1-ol

> <PUBCHEM_IUPAC_NAME>
3-[8-amino-1-(2-phenylquinolin-7-yl)imidazo[1,5-a]pyrazin-3-yl]-1-methylcyclobutan-1-ol

> <PUBCHEM_IUPAC_SYSTEMATIC_NAME>
3-[8-azanyl-1-(2-phenylquinolin-7-yl)imidazo[1,5-a]pyrazin-3-yl]-1-methyl-cyclobutan-1-ol

> <PUBCHEM_IUPAC_TRADITIONAL_NAME>
3-[8-amino-1-(2-phenyl-7-quinolyl)imidazo[1,5-a]pyrazin-3-yl]-1-methyl-cyclobutanol

> <PUBCHEM_IUPAC_INCHI>
InChI=1S/C26H23N5O/c1-26(32)14-19(15-26)25-30-22(23-24(27)28-11-12-31(23)25)18-8-7-17-9-10-20(29-21(17)13-18)16-5-3-2-4-6-16/h2-13,19,32H,14-15H2,1H3,(H2,27,28)

> <PUBCHEM_IUPAC_INCHIKEY>
PKCDDUHJAFVJJB-UHFFFAOYSA-N

> <PUBCHEM_XLOGP3_AA>
4.2

> <PUBCHEM_EXACT_MASS>
421.19026037

> <PUBCHEM_MOLECULAR_FORMULA>
C26H23N5O

> <PUBCHEM_MOLECULAR_WEIGHT>
421.5

> <PUBCHEM_SMILES>
CC1(CC(C1)C2=NC(=C3N2C=CN=C3N)C4=CC5=C(C=C4)C=CC(=N5)C6=CC=CC=C6)O

> <PUBCHEM_OPENEYE_CAN_SMILES>
CC1(CC(C1)C2=NC(=C3N2C=CN=C3N)C4=CC5=C(C=C4)C=CC(=N5)C6=CC=CC=C6)O

> <PUBCHEM_OPENEYE_ISO_SMILES>
CC1(CC(C1)C2=NC(=C3N2C=CN=C3N)C4=CC5=C(C=C4)C=CC(=N5)C6=CC=CC=C6)O

> <PUBCHEM_CACTVS_TPSA>
89.3

> <PUBCHEM_MONOISOTOPIC_WEIGHT>
421.19026037

> <PUBCHEM_TOTAL_CHARGE>
0

> <PUBCHEM_HEAVY_ATOM_COUNT>
32

> <PUBCHEM_ATOM_DEF_STEREO_COUNT>
0

> <PUBCHEM_ATOM_UDEF_STEREO_COUNT>
0

> <PUBCHEM_BOND_DEF_STEREO_COUNT>
0

> <PUBCHEM_BOND_UDEF_STEREO_COUNT>
0

> <PUBCHEM_ISOTOPIC_ATOM_COUNT>
0

> <PUBCHEM_COMPONENT_COUNT>
1

> <PUBCHEM_CACTVS_TAUTO_COUNT>
-1

> <PUBCHEM_COORDINATE_TYPE>
1
5
255

> <PUBCHEM_BONDANNOTATIONS>
13  14  8
13  16  8
15  18  8
17  19  8
17  20  8
19  21  8
2  11  8
2  13  8
2  15  8
20  22  8
21  23  8
22  23  8
23  24  8
24  26  8
25  26  8
27  28  8
27  29  8
28  30  8
29  31  8
3  11  8
3  14  8
30  32  8
31  32  8
4  16  8
4  18  8
6  21  8
6  25  8

$$$$
