24905186
  -OEChem-03192523532D

 35 37  0     0  0  0  0  0  0999 V2000
    3.9639    3.3470    0.0000 Br  0  0  0  0  0  0  0  0  0  0  0  0
    7.2566    2.2708    0.0000 O   0  0  0  0  0  0  0  0  0  0  0  0
    4.6783   -1.6521    0.0000 N   0  0  0  0  0  0  0  0  0  0  0  0
    5.2619   -0.8474    0.0000 N   0  0  0  0  0  0  0  0  0  0  0  0
    2.8660   -1.8474    0.0000 N   0  0  0  0  0  0  0  0  0  0  0  0
    2.0000   -0.3474    0.0000 N   0  0  0  0  0  0  0  0  0  0  0  0
    2.8660    1.1526    0.0000 N   0  0  0  0  0  0  0  0  0  0  0  0
    4.9889   -2.6027    0.0000 C   0  0  0  0  0  0  0  0  0  0  0  0
    3.7320   -1.3474    0.0000 C   0  0  0  0  0  0  0  0  0  0  0  0
    3.7320   -0.3474    0.0000 C   0  0  0  0  0  0  0  0  0  0  0  0
    4.6783   -0.0427    0.0000 C   0  0  0  0  0  0  0  0  0  0  0  0
    5.9674   -2.8089    0.0000 C   0  0  0  0  0  0  0  0  0  0  0  0
    4.3211   -3.3470    0.0000 C   0  0  0  0  0  0  0  0  0  0  0  0
    4.9889    0.9078    0.0000 C   0  0  0  0  0  0  0  0  0  0  0  0
    2.8660    0.1526    0.0000 C   0  0  0  0  0  0  0  0  0  0  0  0
    5.9674    1.1141    0.0000 C   0  0  0  0  0  0  0  0  0  0  0  0
    4.3211    1.6521    0.0000 C   0  0  0  0  0  0  0  0  0  0  0  0
    2.0000   -1.3474    0.0000 C   0  0  0  0  0  0  0  0  0  0  0  0
    6.2781    2.0646    0.0000 C   0  0  0  0  0  0  0  0  0  0  0  0
    4.6318    2.6027    0.0000 C   0  0  0  0  0  0  0  0  0  0  0  0
    5.6103    2.8089    0.0000 C   0  0  0  0  0  0  0  0  0  0  0  0
    5.1815   -3.1920    0.0000 H   0  0  0  0  0  0  0  0  0  0  0  0
    5.8396   -3.4156    0.0000 H   0  0  0  0  0  0  0  0  0  0  0  0
    6.5741   -2.9367    0.0000 H   0  0  0  0  0  0  0  0  0  0  0  0
    6.0953   -2.2022    0.0000 H   0  0  0  0  0  0  0  0  0  0  0  0
    3.8596   -2.9329    0.0000 H   0  0  0  0  0  0  0  0  0  0  0  0
    3.9070   -3.8084    0.0000 H   0  0  0  0  0  0  0  0  0  0  0  0
    4.7826   -3.7610    0.0000 H   0  0  0  0  0  0  0  0  0  0  0  0
    6.3815    0.6526    0.0000 H   0  0  0  0  0  0  0  0  0  0  0  0
    3.7144    1.5243    0.0000 H   0  0  0  0  0  0  0  0  0  0  0  0
    1.4631   -1.6574    0.0000 H   0  0  0  0  0  0  0  0  0  0  0  0
    2.3291    1.4626    0.0000 H   0  0  0  0  0  0  0  0  0  0  0  0
    3.4030    1.4626    0.0000 H   0  0  0  0  0  0  0  0  0  0  0  0
    5.8029    3.3982    0.0000 H   0  0  0  0  0  0  0  0  0  0  0  0
    7.4492    2.8601    0.0000 H   0  0  0  0  0  0  0  0  0  0  0  0
  1 20  1  0  0  0  0
  2 19  1  0  0  0  0
  2 35  1  0  0  0  0
  3  4  1  0  0  0  0
  3  8  1  0  0  0  0
  3  9  1  0  0  0  0
  4 11  2  0  0  0  0
  5  9  2  0  0  0  0
  5 18  1  0  0  0  0
  6 15  1  0  0  0  0
  6 18  2  0  0  0  0
  7 15  1  0  0  0  0
  7 32  1  0  0  0  0
  7 33  1  0  0  0  0
  8 12  1  0  0  0  0
  8 13  1  0  0  0  0
  8 22  1  0  0  0  0
  9 10  1  0  0  0  0
 10 11  1  0  0  0  0
 10 15  2  0  0  0  0
 11 14  1  0  0  0  0
 12 23  1  0  0  0  0
 12 24  1  0  0  0  0
 12 25  1  0  0  0  0
 13 26  1  0  0  0  0
 13 27  1  0  0  0  0
 13 28  1  0  0  0  0
 14 16  2  0  0  0  0
 14 17  1  0  0  0  0
 16 19  1  0  0  0  0
 16 29  1  0  0  0  0
 17 20  2  0  0  0  0
 17 30  1  0  0  0  0
 18 31  1  0  0  0  0
 19 21  2  0  0  0  0
 20 21  1  0  0  0  0
 21 34  1  0  0  0  0
M  END
> <PUBCHEM_COMPOUND_CID>
24905186

> <PUBCHEM_COMPOUND_CANONICALIZED>
1

> <PUBCHEM_CACTVS_COMPLEXITY>
371

> <PUBCHEM_CACTVS_HBOND_ACCEPTOR>
5

> <PUBCHEM_CACTVS_HBOND_DONOR>
2

> <PUBCHEM_CACTVS_ROTATABLE_BOND>
2

> <PUBCHEM_CACTVS_SUBSKEYS>
AAADccBzoAAAEAAAAAAAAAAAAAAAAWAAAAA8QAAAAAAAAFgB/AAAHgBYCAABrCzBnwQ3tt5IEgCiAyZjZACShCsxoKQV2CAuTLiILqLC2dOE9AhsyBPI2jewwPAOAAABEIAAAAAAAAIhAAAAAAAAAAAAAA==

> <PUBCHEM_IUPAC_OPENEYE_NAME>
3-(4-amino-1-isopropyl-pyrazolo[3,4-d]pyrimidin-3-yl)-5-bromo-phenol

> <PUBCHEM_IUPAC_CAS_NAME>
3-(4-amino-1-propan-2-yl-3-pyrazolo[3,4-d]pyrimidinyl)-5-bromophenol

> <PUBCHEM_IUPAC_NAME_MARKUP>
3-(4-amino-1-propan-2-ylpyrazolo[3,4-d]pyrimidin-3-yl)-5-bromophenol

> <PUBCHEM_IUPAC_NAME>
3-(4-amino-1-propan-2-ylpyrazolo[3,4-d]pyrimidin-3-yl)-5-bromophenol

> <PUBCHEM_IUPAC_SYSTEMATIC_NAME>
3-(4-azanyl-1-propan-2-yl-pyrazolo[3,4-d]pyrimidin-3-yl)-5-bromanyl-phenol

> <PUBCHEM_IUPAC_TRADITIONAL_NAME>
3-(4-amino-1-isopropyl-pyrazolo[3,4-d]pyrimidin-3-yl)-5-bromo-phenol

> <PUBCHEM_IUPAC_INCHI>
InChI=1S/C14H14BrN5O/c1-7(2)20-14-11(13(16)17-6-18-14)12(19-20)8-3-9(15)5-10(21)4-8/h3-7,21H,1-2H3,(H2,16,17,18)

> <PUBCHEM_IUPAC_INCHIKEY>
QYPSALIXKCRYNZ-UHFFFAOYSA-N

> <PUBCHEM_XLOGP3_AA>
2.5

> <PUBCHEM_EXACT_MASS>
347.03817

> <PUBCHEM_MOLECULAR_FORMULA>
C14H14BrN5O

> <PUBCHEM_MOLECULAR_WEIGHT>
348.20

> <PUBCHEM_SMILES>
CC(C)N1C2=NC=NC(=C2C(=N1)C3=CC(=CC(=C3)Br)O)N

> <PUBCHEM_OPENEYE_CAN_SMILES>
CC(C)N1C2=NC=NC(=C2C(=N1)C3=CC(=CC(=C3)Br)O)N

> <PUBCHEM_OPENEYE_ISO_SMILES>
CC(C)N1C2=NC=NC(=C2C(=N1)C3=CC(=CC(=C3)Br)O)N

> <PUBCHEM_CACTVS_TPSA>
89.9

> <PUBCHEM_MONOISOTOPIC_WEIGHT>
347.03817

> <PUBCHEM_TOTAL_CHARGE>
0

> <PUBCHEM_HEAVY_ATOM_COUNT>
21

> <PUBCHEM_ATOM_DEF_STEREO_COUNT>
0

> <PUBCHEM_ATOM_UDEF_STEREO_COUNT>
0

> <PUBCHEM_BOND_DEF_STEREO_COUNT>
0

> <PUBCHEM_BOND_UDEF_STEREO_COUNT>
0

> <PUBCHEM_ISOTOPIC_ATOM_COUNT>
0

> <PUBCHEM_COMPONENT_COUNT>
1

> <PUBCHEM_CACTVS_TAUTO_COUNT>
-1

> <PUBCHEM_COORDINATE_TYPE>
1
5
255

> <PUBCHEM_BONDANNOTATIONS>
10  11  8
10  15  8
14  16  8
14  17  8
16  19  8
17  20  8
19  21  8
20  21  8
3  4  8
3  9  8
4  11  8
5  18  8
5  9  8
6  15  8
6  18  8
9  10  8

$$$$
