49830497
  -OEChem-03202503322D

 45 47  0     1  0  0  0  0  0999 V2000
    4.5981    6.0000    0.0000 Cl  0  0  0  0  0  0  0  0  0  0  0  0
    2.8660    3.0000    0.0000 O   0  0  0  0  0  0  0  0  0  0  0  0
    2.0000    0.5000    0.0000 O   0  0  0  0  0  0  0  0  0  0  0  0
    3.7320    0.5000    0.0000 N   0  0  0  0  0  0  0  0  0  0  0  0
    2.8660   -6.0000    0.0000 N   0  0  0  0  0  0  0  0  0  0  0  0
    3.7320    1.5000    0.0000 C   0  0  3  0  0  0  0  0  0  0  0  0
    4.5981    2.0000    0.0000 C   0  0  0  0  0  0  0  0  0  0  0  0
    2.8660    2.0000    0.0000 C   0  0  0  0  0  0  0  0  0  0  0  0
    4.5981    3.0000    0.0000 C   0  0  0  0  0  0  0  0  0  0  0  0
    2.8660    0.0000    0.0000 C   0  0  0  0  0  0  0  0  0  0  0  0
    2.8660   -1.0000    0.0000 C   0  0  0  0  0  0  0  0  0  0  0  0
    3.7320    3.5000    0.0000 C   0  0  0  0  0  0  0  0  0  0  0  0
    5.4641    3.5000    0.0000 C   0  0  0  0  0  0  0  0  0  0  0  0
    2.8660   -3.0000    0.0000 C   0  0  0  0  0  0  0  0  0  0  0  0
    3.7320   -1.5000    0.0000 C   0  0  0  0  0  0  0  0  0  0  0  0
    2.0000   -1.5000    0.0000 C   0  0  0  0  0  0  0  0  0  0  0  0
    3.7320    4.5000    0.0000 C   0  0  0  0  0  0  0  0  0  0  0  0
    5.4641    4.5000    0.0000 C   0  0  0  0  0  0  0  0  0  0  0  0
    3.7320   -2.5000    0.0000 C   0  0  0  0  0  0  0  0  0  0  0  0
    2.0000   -2.5000    0.0000 C   0  0  0  0  0  0  0  0  0  0  0  0
    4.5981    5.0000    0.0000 C   0  0  0  0  0  0  0  0  0  0  0  0
    2.8660   -4.0000    0.0000 C   0  0  0  0  0  0  0  0  0  0  0  0
    2.0000   -4.5000    0.0000 C   0  0  0  0  0  0  0  0  0  0  0  0
    3.7320   -4.5000    0.0000 C   0  0  0  0  0  0  0  0  0  0  0  0
    2.0000   -5.5000    0.0000 C   0  0  0  0  0  0  0  0  0  0  0  0
    3.7320   -5.5000    0.0000 C   0  0  0  0  0  0  0  0  0  0  0  0
    4.2690    1.1900    0.0000 H   0  0  0  0  0  0  0  0  0  0  0  0
    4.8101    1.4174    0.0000 H   0  0  0  0  0  0  0  0  0  0  0  0
    5.2087    2.1077    0.0000 H   0  0  0  0  0  0  0  0  0  0  0  0
    2.2554    2.1077    0.0000 H   0  0  0  0  0  0  0  0  0  0  0  0
    2.6540    1.4174    0.0000 H   0  0  0  0  0  0  0  0  0  0  0  0
    4.2690    0.1900    0.0000 H   0  0  0  0  0  0  0  0  0  0  0  0
    3.1951    3.1900    0.0000 H   0  0  0  0  0  0  0  0  0  0  0  0
    6.0010    3.1900    0.0000 H   0  0  0  0  0  0  0  0  0  0  0  0
    4.2690   -1.1900    0.0000 H   0  0  0  0  0  0  0  0  0  0  0  0
    1.4631   -1.1900    0.0000 H   0  0  0  0  0  0  0  0  0  0  0  0
    3.1951    4.8100    0.0000 H   0  0  0  0  0  0  0  0  0  0  0  0
    6.0010    4.8100    0.0000 H   0  0  0  0  0  0  0  0  0  0  0  0
    4.2690   -2.8100    0.0000 H   0  0  0  0  0  0  0  0  0  0  0  0
    1.4631   -2.8100    0.0000 H   0  0  0  0  0  0  0  0  0  0  0  0
    2.3291    3.3100    0.0000 H   0  0  0  0  0  0  0  0  0  0  0  0
    1.4631   -4.1900    0.0000 H   0  0  0  0  0  0  0  0  0  0  0  0
    4.2690   -4.1900    0.0000 H   0  0  0  0  0  0  0  0  0  0  0  0
    1.4631   -5.8100    0.0000 H   0  0  0  0  0  0  0  0  0  0  0  0
    4.2690   -5.8100    0.0000 H   0  0  0  0  0  0  0  0  0  0  0  0
  1 21  1  0  0  0  0
  2  8  1  0  0  0  0
  2 41  1  0  0  0  0
  3 10  2  0  0  0  0
  4  6  1  0  0  0  0
  4 10  1  0  0  0  0
  4 32  1  0  0  0  0
  5 25  2  0  0  0  0
  5 26  1  0  0  0  0
  6  7  1  0  0  0  0
  6  8  1  0  0  0  0
  6 27  1  0  0  0  0
  7  9  1  0  0  0  0
  7 28  1  0  0  0  0
  7 29  1  0  0  0  0
  8 30  1  0  0  0  0
  8 31  1  0  0  0  0
  9 12  2  0  0  0  0
  9 13  1  0  0  0  0
 10 11  1  0  0  0  0
 11 15  2  0  0  0  0
 11 16  1  0  0  0  0
 12 17  1  0  0  0  0
 12 33  1  0  0  0  0
 13 18  2  0  0  0  0
 13 34  1  0  0  0  0
 14 19  2  0  0  0  0
 14 20  1  0  0  0  0
 14 22  1  0  0  0  0
 15 19  1  0  0  0  0
 15 35  1  0  0  0  0
 16 20  2  0  0  0  0
 16 36  1  0  0  0  0
 17 21  2  0  0  0  0
 17 37  1  0  0  0  0
 18 21  1  0  0  0  0
 18 38  1  0  0  0  0
 19 39  1  0  0  0  0
 20 40  1  0  0  0  0
 22 23  2  0  0  0  0
 22 24  1  0  0  0  0
 23 25  1  0  0  0  0
 23 42  1  0  0  0  0
 24 26  2  0  0  0  0
 24 43  1  0  0  0  0
 25 44  1  0  0  0  0
 26 45  1  0  0  0  0
M  END
> <PUBCHEM_COMPOUND_CID>
49830497

> <PUBCHEM_COMPOUND_CANONICALIZED>
1

> <PUBCHEM_CACTVS_COMPLEXITY>
426

> <PUBCHEM_CACTVS_HBOND_ACCEPTOR>
3

> <PUBCHEM_CACTVS_HBOND_DONOR>
2

> <PUBCHEM_CACTVS_ROTATABLE_BOND>
6

> <PUBCHEM_CACTVS_SUBSKEYS>
AAADceB7MAAEAAAAAAAAAAAAAAAAAAAAAAA8YIAAAAAAAAAB0AAAHgIQCAAADCrhmiY8gJLIEgCoAjF3VACCgCA1ByAI2KE4ZtgKMHLBl5GEYQhklgDYyYeYyOCOxAAAAAAAAACIAAAAAAAAAAAAAAAAAA==

> <PUBCHEM_IUPAC_OPENEYE_NAME>
N-[1-[(4-chlorophenyl)methyl]-2-hydroxy-ethyl]-4-(4-pyridyl)benzamide

> <PUBCHEM_IUPAC_CAS_NAME>
N-[1-(4-chlorophenyl)-3-hydroxypropan-2-yl]-4-pyridin-4-ylbenzamide

> <PUBCHEM_IUPAC_NAME_MARKUP>
<I>N</I>-[1-(4-chlorophenyl)-3-hydroxypropan-2-yl]-4-pyridin-4-ylbenzamide

> <PUBCHEM_IUPAC_NAME>
N-[1-(4-chlorophenyl)-3-hydroxypropan-2-yl]-4-pyridin-4-ylbenzamide

> <PUBCHEM_IUPAC_SYSTEMATIC_NAME>
N-[1-(4-chlorophenyl)-3-oxidanyl-propan-2-yl]-4-pyridin-4-yl-benzamide

> <PUBCHEM_IUPAC_TRADITIONAL_NAME>
N-[1-(4-chlorobenzyl)-2-hydroxy-ethyl]-4-(4-pyridyl)benzamide

> <PUBCHEM_IUPAC_INCHI>
InChI=1S/C21H19ClN2O2/c22-19-7-1-15(2-8-19)13-20(14-25)24-21(26)18-5-3-16(4-6-18)17-9-11-23-12-10-17/h1-12,20,25H,13-14H2,(H,24,26)

> <PUBCHEM_IUPAC_INCHIKEY>
DPPIQOOVRLCHQC-UHFFFAOYSA-N

> <PUBCHEM_XLOGP3_AA>
3.7

> <PUBCHEM_EXACT_MASS>
366.1135055

> <PUBCHEM_MOLECULAR_FORMULA>
C21H19ClN2O2

> <PUBCHEM_MOLECULAR_WEIGHT>
366.8

> <PUBCHEM_SMILES>
C1=CC(=CC=C1CC(CO)NC(=O)C2=CC=C(C=C2)C3=CC=NC=C3)Cl

> <PUBCHEM_OPENEYE_CAN_SMILES>
C1=CC(=CC=C1CC(CO)NC(=O)C2=CC=C(C=C2)C3=CC=NC=C3)Cl

> <PUBCHEM_OPENEYE_ISO_SMILES>
C1=CC(=CC=C1CC(CO)NC(=O)C2=CC=C(C=C2)C3=CC=NC=C3)Cl

> <PUBCHEM_CACTVS_TPSA>
62.2

> <PUBCHEM_MONOISOTOPIC_WEIGHT>
366.1135055

> <PUBCHEM_TOTAL_CHARGE>
0

> <PUBCHEM_HEAVY_ATOM_COUNT>
26

> <PUBCHEM_ATOM_DEF_STEREO_COUNT>
0

> <PUBCHEM_ATOM_UDEF_STEREO_COUNT>
1

> <PUBCHEM_BOND_DEF_STEREO_COUNT>
0

> <PUBCHEM_BOND_UDEF_STEREO_COUNT>
0

> <PUBCHEM_ISOTOPIC_ATOM_COUNT>
0

> <PUBCHEM_COMPONENT_COUNT>
1

> <PUBCHEM_CACTVS_TAUTO_COUNT>
-1

> <PUBCHEM_COORDINATE_TYPE>
1
5
255

> <PUBCHEM_BONDANNOTATIONS>
11  15  8
11  16  8
12  17  8
13  18  8
14  19  8
14  20  8
15  19  8
16  20  8
17  21  8
18  21  8
22  23  8
22  24  8
23  25  8
24  26  8
5  25  8
5  26  8
6  7  3
9  12  8
9  13  8

$$$$
