49830650
  -OEChem-03202501582D

 61 64  0     0  0  0  0  0  0999 V2000
    8.4398   -2.8327    0.0000 O   0  0  0  0  0  0  0  0  0  0  0  0
    5.5717    2.8383    0.0000 O   0  0  0  0  0  0  0  0  0  0  0  0
    8.1698    2.3383    0.0000 O   0  0  0  0  0  0  0  0  0  0  0  0
    9.9261   -4.1710    0.0000 O   0  0  0  0  0  0  0  0  0  0  0  0
    5.4672   -0.1562    0.0000 N   0  0  0  0  0  0  0  0  0  0  0  0
    4.4890   -0.3641    0.0000 N   0  0  0  0  0  0  0  0  0  0  0  0
    6.4378    1.3383    0.0000 N   0  0  0  0  0  0  0  0  0  0  0  0
    8.7671   -5.4581    0.0000 N   0  0  0  0  0  0  0  0  0  0  0  0
    2.9945    0.6065    0.0000 C   0  0  0  0  0  0  0  0  0  0  0  0
    3.9890    0.5019    0.0000 C   0  0  0  0  0  0  0  0  0  0  0  0
    2.0000    0.7110    0.0000 C   0  0  0  0  0  0  0  0  0  0  0  0
    2.8900   -0.3881    0.0000 C   0  0  0  0  0  0  0  0  0  0  0  0
    3.0990    1.6010    0.0000 C   0  0  0  0  0  0  0  0  0  0  0  0
    4.6582    1.2451    0.0000 C   0  0  0  0  0  0  0  0  0  0  0  0
    5.5717    0.8383    0.0000 C   0  0  0  0  0  0  0  0  0  0  0  0
    6.2103   -0.8253    0.0000 C   0  0  0  0  0  0  0  0  0  0  0  0
    6.0024   -1.8035    0.0000 C   0  0  0  0  0  0  0  0  0  0  0  0
    7.1614   -0.5163    0.0000 C   0  0  0  0  0  0  0  0  0  0  0  0
    6.4378    2.3383    0.0000 C   0  0  0  0  0  0  0  0  0  0  0  0
    7.3038    3.8383    0.0000 C   0  0  0  0  0  0  0  0  0  0  0  0
    7.3038    2.8383    0.0000 C   0  0  0  0  0  0  0  0  0  0  0  0
    8.1698    4.3383    0.0000 C   0  0  0  0  0  0  0  0  0  0  0  0
    6.7456   -2.4726    0.0000 C   0  0  0  0  0  0  0  0  0  0  0  0
    7.9045   -1.1854    0.0000 C   0  0  0  0  0  0  0  0  0  0  0  0
    7.6966   -2.1636    0.0000 C   0  0  0  0  0  0  0  0  0  0  0  0
    8.1698    5.3383    0.0000 C   0  0  0  0  0  0  0  0  0  0  0  0
    6.4378    4.3383    0.0000 C   0  0  0  0  0  0  0  0  0  0  0  0
    9.0637    3.8037    0.0000 C   0  0  0  0  0  0  0  0  0  0  0  0
    7.3038    5.8383    0.0000 C   0  0  0  0  0  0  0  0  0  0  0  0
    6.4378    5.3383    0.0000 C   0  0  0  0  0  0  0  0  0  0  0  0
    9.0637    5.8730    0.0000 C   0  0  0  0  0  0  0  0  0  0  0  0
    9.9698    4.3175    0.0000 C   0  0  0  0  0  0  0  0  0  0  0  0
    9.9698    5.3592    0.0000 C   0  0  0  0  0  0  0  0  0  0  0  0
    8.2319   -3.8109    0.0000 C   0  0  0  0  0  0  0  0  0  0  0  0
    8.9750   -4.4800    0.0000 C   0  0  0  0  0  0  0  0  0  0  0  0
    2.0648    1.3276    0.0000 H   0  0  0  0  0  0  0  0  0  0  0  0
    1.3834    0.7758    0.0000 H   0  0  0  0  0  0  0  0  0  0  0  0
    1.9352    0.0944    0.0000 H   0  0  0  0  0  0  0  0  0  0  0  0
    2.2734   -0.3233    0.0000 H   0  0  0  0  0  0  0  0  0  0  0  0
    2.8252   -1.0047    0.0000 H   0  0  0  0  0  0  0  0  0  0  0  0
    3.5066   -0.4529    0.0000 H   0  0  0  0  0  0  0  0  0  0  0  0
    3.7156    1.5362    0.0000 H   0  0  0  0  0  0  0  0  0  0  0  0
    3.1639    2.2176    0.0000 H   0  0  0  0  0  0  0  0  0  0  0  0
    2.4824    1.6658    0.0000 H   0  0  0  0  0  0  0  0  0  0  0  0
    4.5293    1.8515    0.0000 H   0  0  0  0  0  0  0  0  0  0  0  0
    6.9747    1.0283    0.0000 H   0  0  0  0  0  0  0  0  0  0  0  0
    5.4128   -1.9951    0.0000 H   0  0  0  0  0  0  0  0  0  0  0  0
    7.2903    0.0902    0.0000 H   0  0  0  0  0  0  0  0  0  0  0  0
    6.6167   -3.0790    0.0000 H   0  0  0  0  0  0  0  0  0  0  0  0
    8.4942   -0.9938    0.0000 H   0  0  0  0  0  0  0  0  0  0  0  0
    5.9008    4.0283    0.0000 H   0  0  0  0  0  0  0  0  0  0  0  0
    9.0566    3.1837    0.0000 H   0  0  0  0  0  0  0  0  0  0  0  0
    7.3038    6.4583    0.0000 H   0  0  0  0  0  0  0  0  0  0  0  0
    5.9008    5.6483    0.0000 H   0  0  0  0  0  0  0  0  0  0  0  0
    9.0566    6.4930    0.0000 H   0  0  0  0  0  0  0  0  0  0  0  0
   10.5055    4.0054    0.0000 H   0  0  0  0  0  0  0  0  0  0  0  0
   10.5055    5.6712    0.0000 H   0  0  0  0  0  0  0  0  0  0  0  0
    7.6570   -3.5786    0.0000 H   0  0  0  0  0  0  0  0  0  0  0  0
    7.9033   -4.3366    0.0000 H   0  0  0  0  0  0  0  0  0  0  0  0
    9.2278   -5.8730    0.0000 H   0  0  0  0  0  0  0  0  0  0  0  0
    8.1774   -5.6497    0.0000 H   0  0  0  0  0  0  0  0  0  0  0  0
  1 25  1  0  0  0  0
  1 34  1  0  0  0  0
  2 19  2  0  0  0  0
  3 21  2  0  0  0  0
  4 35  2  0  0  0  0
  5  6  1  0  0  0  0
  5 15  1  0  0  0  0
  5 16  1  0  0  0  0
  6 10  2  0  0  0  0
  7 15  1  0  0  0  0
  7 19  1  0  0  0  0
  7 46  1  0  0  0  0
  8 35  1  0  0  0  0
  8 60  1  0  0  0  0
  8 61  1  0  0  0  0
  9 10  1  0  0  0  0
  9 11  1  0  0  0  0
  9 12  1  0  0  0  0
  9 13  1  0  0  0  0
 10 14  1  0  0  0  0
 11 36  1  0  0  0  0
 11 37  1  0  0  0  0
 11 38  1  0  0  0  0
 12 39  1  0  0  0  0
 12 40  1  0  0  0  0
 12 41  1  0  0  0  0
 13 42  1  0  0  0  0
 13 43  1  0  0  0  0
 13 44  1  0  0  0  0
 14 15  2  0  0  0  0
 14 45  1  0  0  0  0
 16 17  2  0  0  0  0
 16 18  1  0  0  0  0
 17 23  1  0  0  0  0
 17 47  1  0  0  0  0
 18 24  2  0  0  0  0
 18 48  1  0  0  0  0
 19 21  1  0  0  0  0
 20 21  1  0  0  0  0
 20 22  1  0  0  0  0
 20 27  2  0  0  0  0
 22 26  1  0  0  0  0
 22 28  2  0  0  0  0
 23 25  2  0  0  0  0
 23 49  1  0  0  0  0
 24 25  1  0  0  0  0
 24 50  1  0  0  0  0
 26 29  1  0  0  0  0
 26 31  2  0  0  0  0
 27 30  1  0  0  0  0
 27 51  1  0  0  0  0
 28 32  1  0  0  0  0
 28 52  1  0  0  0  0
 29 30  2  0  0  0  0
 29 53  1  0  0  0  0
 30 54  1  0  0  0  0
 31 33  1  0  0  0  0
 31 55  1  0  0  0  0
 32 33  2  0  0  0  0
 32 56  1  0  0  0  0
 33 57  1  0  0  0  0
 34 35  1  0  0  0  0
 34 58  1  0  0  0  0
 34 59  1  0  0  0  0
M  END
> <PUBCHEM_COMPOUND_CID>
49830650

> <PUBCHEM_COMPOUND_CANONICALIZED>
1

> <PUBCHEM_CACTVS_COMPLEXITY>
774

> <PUBCHEM_CACTVS_HBOND_ACCEPTOR>
5

> <PUBCHEM_CACTVS_HBOND_DONOR>
2

> <PUBCHEM_CACTVS_ROTATABLE_BOND>
8

> <PUBCHEM_CACTVS_SUBSKEYS>
AAADceB7uAAAAAAAAAAAAAAAAAAAAWAAAAAwYMAAAAAAAADB1AAAHgAYAAAADgyhngIz9tLIBACqA6dydAKSDCMlIgAdmCH2bNiOJnLE/f+HvSj83RPI6ae4yMCPgEACAAAQAAAAgAQAACAAAAAAAAAAAA==

> <PUBCHEM_IUPAC_OPENEYE_NAME>
N-[2-[4-(2-amino-2-oxo-ethoxy)phenyl]-5-tert-butyl-pyrazol-3-yl]-2-(1-naphthyl)-2-oxo-acetamide

> <PUBCHEM_IUPAC_CAS_NAME>
N-[2-[4-(2-amino-2-oxoethoxy)phenyl]-5-tert-butyl-3-pyrazolyl]-2-(1-naphthalenyl)-2-oxoacetamide

> <PUBCHEM_IUPAC_NAME_MARKUP>
<I>N</I>-[2-[4-(2-amino-2-oxoethoxy)phenyl]-5-<I>tert</I>-butylpyrazol-3-yl]-2-naphthalen-1-yl-2-oxoacetamide

> <PUBCHEM_IUPAC_NAME>
N-[2-[4-(2-amino-2-oxoethoxy)phenyl]-5-tert-butylpyrazol-3-yl]-2-naphthalen-1-yl-2-oxoacetamide

> <PUBCHEM_IUPAC_SYSTEMATIC_NAME>
N-[2-[4-(2-azanyl-2-oxidanylidene-ethoxy)phenyl]-5-tert-butyl-pyrazol-3-yl]-2-naphthalen-1-yl-2-oxidanylidene-ethanamide

> <PUBCHEM_IUPAC_TRADITIONAL_NAME>
N-[2-[4-(2-amino-2-keto-ethoxy)phenyl]-5-tert-butyl-pyrazol-3-yl]-2-keto-2-(1-naphthyl)acetamide

> <PUBCHEM_IUPAC_INCHI>
InChI=1S/C27H26N4O4/c1-27(2,3)22-15-24(31(30-22)18-11-13-19(14-12-18)35-16-23(28)32)29-26(34)25(33)21-10-6-8-17-7-4-5-9-20(17)21/h4-15H,16H2,1-3H3,(H2,28,32)(H,29,34)

> <PUBCHEM_IUPAC_INCHIKEY>
OUHZERPTTDHQIV-UHFFFAOYSA-N

> <PUBCHEM_XLOGP3_AA>
4.8

> <PUBCHEM_EXACT_MASS>
470.19540532

> <PUBCHEM_MOLECULAR_FORMULA>
C27H26N4O4

> <PUBCHEM_MOLECULAR_WEIGHT>
470.5

> <PUBCHEM_SMILES>
CC(C)(C)C1=NN(C(=C1)NC(=O)C(=O)C2=CC=CC3=CC=CC=C32)C4=CC=C(C=C4)OCC(=O)N

> <PUBCHEM_OPENEYE_CAN_SMILES>
CC(C)(C)C1=NN(C(=C1)NC(=O)C(=O)C2=CC=CC3=CC=CC=C32)C4=CC=C(C=C4)OCC(=O)N

> <PUBCHEM_OPENEYE_ISO_SMILES>
CC(C)(C)C1=NN(C(=C1)NC(=O)C(=O)C2=CC=CC3=CC=CC=C32)C4=CC=C(C=C4)OCC(=O)N

> <PUBCHEM_CACTVS_TPSA>
116

> <PUBCHEM_MONOISOTOPIC_WEIGHT>
470.19540532

> <PUBCHEM_TOTAL_CHARGE>
0

> <PUBCHEM_HEAVY_ATOM_COUNT>
35

> <PUBCHEM_ATOM_DEF_STEREO_COUNT>
0

> <PUBCHEM_ATOM_UDEF_STEREO_COUNT>
0

> <PUBCHEM_BOND_DEF_STEREO_COUNT>
0

> <PUBCHEM_BOND_UDEF_STEREO_COUNT>
0

> <PUBCHEM_ISOTOPIC_ATOM_COUNT>
0

> <PUBCHEM_COMPONENT_COUNT>
1

> <PUBCHEM_CACTVS_TAUTO_COUNT>
-1

> <PUBCHEM_COORDINATE_TYPE>
1
5
255

> <PUBCHEM_BONDANNOTATIONS>
10  14  8
14  15  8
16  17  8
16  18  8
17  23  8
18  24  8
20  22  8
20  27  8
22  26  8
22  28  8
23  25  8
24  25  8
26  29  8
26  31  8
27  30  8
28  32  8
29  30  8
31  33  8
32  33  8
5  15  8
5  6  8
6  10  8

$$$$
