25224338
  -OEChem-03202504282D

 16 17  0     0  0  0  0  0  0999 V2000
    5.5443   -1.4597    0.0000 S   0  0  0  0  0  0  0  0  0  0  0  0
    2.0000   -1.6550    0.0000 O   0  0  0  0  0  0  0  0  0  0  0  0
    2.8660   -0.1550    0.0000 N   0  0  0  0  0  0  0  0  0  0  0  0
    3.7320   -1.6550    0.0000 N   0  0  0  0  0  0  0  0  0  0  0  0
    3.7320    1.3450    0.0000 N   0  0  0  0  0  0  0  0  0  0  0  0
    4.5981   -0.1550    0.0000 C   0  0  0  0  0  0  0  0  0  0  0  0
    3.7320    0.3450    0.0000 C   0  0  0  0  0  0  0  0  0  0  0  0
    4.5981   -1.1550    0.0000 C   0  0  0  0  0  0  0  0  0  0  0  0
    5.5443    0.1497    0.0000 C   0  0  0  0  0  0  0  0  0  0  0  0
    6.1279   -0.6550    0.0000 C   0  0  0  0  0  0  0  0  0  0  0  0
    2.8660   -1.1550    0.0000 C   0  0  0  0  0  0  0  0  0  0  0  0
    5.7369    0.7391    0.0000 H   0  0  0  0  0  0  0  0  0  0  0  0
    2.3291    0.1550    0.0000 H   0  0  0  0  0  0  0  0  0  0  0  0
    6.7479   -0.6550    0.0000 H   0  0  0  0  0  0  0  0  0  0  0  0
    3.1951    1.6550    0.0000 H   0  0  0  0  0  0  0  0  0  0  0  0
    4.2690    1.6550    0.0000 H   0  0  0  0  0  0  0  0  0  0  0  0
  1  8  1  0  0  0  0
  1 10  1  0  0  0  0
  2 11  2  0  0  0  0
  3  7  1  0  0  0  0
  3 11  1  0  0  0  0
  3 13  1  0  0  0  0
  4  8  2  0  0  0  0
  4 11  1  0  0  0  0
  5  7  1  0  0  0  0
  5 15  1  0  0  0  0
  5 16  1  0  0  0  0
  6  7  2  0  0  0  0
  6  8  1  0  0  0  0
  6  9  1  0  0  0  0
  9 10  2  0  0  0  0
  9 12  1  0  0  0  0
 10 14  1  0  0  0  0
M  END
> <PUBCHEM_COMPOUND_CID>
25224338

> <PUBCHEM_COMPOUND_CANONICALIZED>
1

> <PUBCHEM_CACTVS_COMPLEXITY>
316

> <PUBCHEM_CACTVS_HBOND_ACCEPTOR>
3

> <PUBCHEM_CACTVS_HBOND_DONOR>
2

> <PUBCHEM_CACTVS_ROTATABLE_BOND>
0

> <PUBCHEM_CACTVS_SUBSKEYS>
AAADcYBjIABAAAAAAAAAAAAAAAAAAQAAAAAgAAAAAAAAAEAAAAAAHgQQAAAADACFQACBAALAAAioAiBiVAAAEAAgABAIAAAgABiIAAAgAAAAAAAAAQAAAAAAAAAAAAAAAAAAAAAAAAAAAAAAAAAAAAAAAA==

> <PUBCHEM_IUPAC_OPENEYE_NAME>
4-amino-3H-thieno[2,3-d]pyrimidin-2-one

> <PUBCHEM_IUPAC_CAS_NAME>
4-amino-3H-thieno[2,3-d]pyrimidin-2-one

> <PUBCHEM_IUPAC_NAME_MARKUP>
4-amino-3<I>H</I>-thieno[2,3-d]pyrimidin-2-one

> <PUBCHEM_IUPAC_NAME>
4-amino-3H-thieno[2,3-d]pyrimidin-2-one

> <PUBCHEM_IUPAC_SYSTEMATIC_NAME>
4-azanyl-3H-thieno[2,3-d]pyrimidin-2-one

> <PUBCHEM_IUPAC_TRADITIONAL_NAME>
4-amino-3H-thieno[2,3-d]pyrimidin-2-one

> <PUBCHEM_IUPAC_INCHI>
InChI=1S/C6H5N3OS/c7-4-3-1-2-11-5(3)9-6(10)8-4/h1-2H,(H3,7,8,9,10)

> <PUBCHEM_IUPAC_INCHIKEY>
WWKWWGIKNDEUJE-UHFFFAOYSA-N

> <PUBCHEM_XLOGP3_AA>
-0.1

> <PUBCHEM_EXACT_MASS>
167.01533297

> <PUBCHEM_MOLECULAR_FORMULA>
C6H5N3OS

> <PUBCHEM_MOLECULAR_WEIGHT>
167.19

> <PUBCHEM_SMILES>
C1=CSC2=NC(=O)NC(=C21)N

> <PUBCHEM_OPENEYE_CAN_SMILES>
C1=CSC2=NC(=O)NC(=C21)N

> <PUBCHEM_OPENEYE_ISO_SMILES>
C1=CSC2=NC(=O)NC(=C21)N

> <PUBCHEM_CACTVS_TPSA>
92.8

> <PUBCHEM_MONOISOTOPIC_WEIGHT>
167.01533297

> <PUBCHEM_TOTAL_CHARGE>
0

> <PUBCHEM_HEAVY_ATOM_COUNT>
11

> <PUBCHEM_ATOM_DEF_STEREO_COUNT>
0

> <PUBCHEM_ATOM_UDEF_STEREO_COUNT>
0

> <PUBCHEM_BOND_DEF_STEREO_COUNT>
0

> <PUBCHEM_BOND_UDEF_STEREO_COUNT>
0

> <PUBCHEM_ISOTOPIC_ATOM_COUNT>
0

> <PUBCHEM_COMPONENT_COUNT>
1

> <PUBCHEM_CACTVS_TAUTO_COUNT>
-1

> <PUBCHEM_COORDINATE_TYPE>
1
5
255

> <PUBCHEM_BONDANNOTATIONS>
1  10  8
1  8  8
3  11  8
3  7  8
4  11  8
4  8  8
6  7  8
6  8  8
6  9  8
9  10  8

$$$$
