24905234
  -OEChem-03192523502D

 33 36  0     0  0  0  0  0  0999 V2000
    8.3568   -1.7465    0.0000 O   0  0  0  0  0  0  0  0  0  0  0  0
    8.3452    1.3228    0.0000 O   0  0  0  0  0  0  0  0  0  0  0  0
    3.7899    1.4861    0.0000 N   0  0  0  0  0  0  0  0  0  0  0  0
    4.7617    1.2769    0.0000 N   0  0  0  0  0  0  0  0  0  0  0  0
    2.3107    0.4212    0.0000 N   0  0  0  0  0  0  0  0  0  0  0  0
    2.6678   -1.2737    0.0000 N   0  0  0  0  0  0  0  0  0  0  0  0
    4.3142   -1.8117    0.0000 N   0  0  0  0  0  0  0  0  0  0  0  0
    4.8648    0.2882    0.0000 C   0  0  0  0  0  0  0  0  0  0  0  0
    3.9570   -0.1169    0.0000 C   0  0  0  0  0  0  0  0  0  0  0  0
    5.7308   -0.2118    0.0000 C   0  0  0  0  0  0  0  0  0  0  0  0
    3.2892    0.6274    0.0000 C   0  0  0  0  0  0  0  0  0  0  0  0
    6.5968    0.2882    0.0000 C   0  0  0  0  0  0  0  0  0  0  0  0
    7.4629   -0.2118    0.0000 C   0  0  0  0  0  0  0  0  0  0  0  0
    5.7308   -1.2118    0.0000 C   0  0  0  0  0  0  0  0  0  0  0  0
    3.6464   -1.0674    0.0000 C   0  0  0  0  0  0  0  0  0  0  0  0
    7.4629   -1.2118    0.0000 C   0  0  0  0  0  0  0  0  0  0  0  0
    6.5968   -1.7118    0.0000 C   0  0  0  0  0  0  0  0  0  0  0  0
    3.3864    2.4011    0.0000 C   0  0  0  0  0  0  0  0  0  0  0  0
    8.3568    0.3229    0.0000 C   0  0  0  0  0  0  0  0  0  0  0  0
    2.0000   -0.5294    0.0000 C   0  0  0  0  0  0  0  0  0  0  0  0
    9.2629   -0.1910    0.0000 C   0  0  0  0  0  0  0  0  0  0  0  0
    9.2629   -1.2326    0.0000 C   0  0  0  0  0  0  0  0  0  0  0  0
    6.5968    0.9082    0.0000 H   0  0  0  0  0  0  0  0  0  0  0  0
    5.1939   -1.5218    0.0000 H   0  0  0  0  0  0  0  0  0  0  0  0
    6.5968   -2.3318    0.0000 H   0  0  0  0  0  0  0  0  0  0  0  0
    3.9536    2.6513    0.0000 H   0  0  0  0  0  0  0  0  0  0  0  0
    3.1361    2.9683    0.0000 H   0  0  0  0  0  0  0  0  0  0  0  0
    2.8191    2.1508    0.0000 H   0  0  0  0  0  0  0  0  0  0  0  0
    1.3933   -0.6572    0.0000 H   0  0  0  0  0  0  0  0  0  0  0  0
    9.7986    0.1211    0.0000 H   0  0  0  0  0  0  0  0  0  0  0  0
    4.1216   -2.4011    0.0000 H   0  0  0  0  0  0  0  0  0  0  0  0
    4.9209   -1.6839    0.0000 H   0  0  0  0  0  0  0  0  0  0  0  0
    9.7986   -1.5447    0.0000 H   0  0  0  0  0  0  0  0  0  0  0  0
  1 16  1  0  0  0  0
  1 22  1  0  0  0  0
  2 19  2  0  0  0  0
  3  4  1  0  0  0  0
  3 11  1  0  0  0  0
  3 18  1  0  0  0  0
  4  8  2  0  0  0  0
  5 11  2  0  0  0  0
  5 20  1  0  0  0  0
  6 15  1  0  0  0  0
  6 20  2  0  0  0  0
  7 15  1  0  0  0  0
  7 31  1  0  0  0  0
  7 32  1  0  0  0  0
  8  9  1  0  0  0  0
  8 10  1  0  0  0  0
  9 11  1  0  0  0  0
  9 15  2  0  0  0  0
 10 12  2  0  0  0  0
 10 14  1  0  0  0  0
 12 13  1  0  0  0  0
 12 23  1  0  0  0  0
 13 16  2  0  0  0  0
 13 19  1  0  0  0  0
 14 17  2  0  0  0  0
 14 24  1  0  0  0  0
 16 17  1  0  0  0  0
 17 25  1  0  0  0  0
 18 26  1  0  0  0  0
 18 27  1  0  0  0  0
 18 28  1  0  0  0  0
 19 21  1  0  0  0  0
 20 29  1  0  0  0  0
 21 22  2  0  0  0  0
 21 30  1  0  0  0  0
 22 33  1  0  0  0  0
M  END
> <PUBCHEM_COMPOUND_CID>
24905234

> <PUBCHEM_COMPOUND_CANONICALIZED>
1

> <PUBCHEM_CACTVS_COMPLEXITY>
485

> <PUBCHEM_CACTVS_HBOND_ACCEPTOR>
6

> <PUBCHEM_CACTVS_HBOND_DONOR>
1

> <PUBCHEM_CACTVS_ROTATABLE_BOND>
1

> <PUBCHEM_CACTVS_SUBSKEYS>
AAADccBzsAAAAAAAAAAAAAAAAAAAAWAAAAA8QIAAAAAAAFiB/AAAHgAYAAAADAyhnwY3tt5IFACqA6ZzZACSjCs1oKAd2CEuTNiMLrbE/duEtWhs6BNI6aeY2eGeIAACAAAIAABAAAQAABAAAAAAAAAAAA==

> <PUBCHEM_IUPAC_OPENEYE_NAME>
6-(4-amino-1-methyl-pyrazolo[3,4-d]pyrimidin-3-yl)chromen-4-one

> <PUBCHEM_IUPAC_CAS_NAME>
6-(4-amino-1-methyl-3-pyrazolo[3,4-d]pyrimidinyl)-1-benzopyran-4-one

> <PUBCHEM_IUPAC_NAME_MARKUP>
6-(4-amino-1-methylpyrazolo[3,4-d]pyrimidin-3-yl)chromen-4-one

> <PUBCHEM_IUPAC_NAME>
6-(4-amino-1-methylpyrazolo[3,4-d]pyrimidin-3-yl)chromen-4-one

> <PUBCHEM_IUPAC_SYSTEMATIC_NAME>
6-(4-azanyl-1-methyl-pyrazolo[3,4-d]pyrimidin-3-yl)chromen-4-one

> <PUBCHEM_IUPAC_TRADITIONAL_NAME>
6-(4-amino-1-methyl-pyrazolo[3,4-d]pyrimidin-3-yl)chromone

> <PUBCHEM_IUPAC_INCHI>
InChI=1S/C15H11N5O2/c1-20-15-12(14(16)17-7-18-15)13(19-20)8-2-3-11-9(6-8)10(21)4-5-22-11/h2-7H,1H3,(H2,16,17,18)

> <PUBCHEM_IUPAC_INCHIKEY>
IXPOSFVTGQUOAI-UHFFFAOYSA-N

> <PUBCHEM_XLOGP3_AA>
1.1

> <PUBCHEM_EXACT_MASS>
293.09127461

> <PUBCHEM_MOLECULAR_FORMULA>
C15H11N5O2

> <PUBCHEM_MOLECULAR_WEIGHT>
293.28

> <PUBCHEM_SMILES>
CN1C2=NC=NC(=C2C(=N1)C3=CC4=C(C=C3)OC=CC4=O)N

> <PUBCHEM_OPENEYE_CAN_SMILES>
CN1C2=NC=NC(=C2C(=N1)C3=CC4=C(C=C3)OC=CC4=O)N

> <PUBCHEM_OPENEYE_ISO_SMILES>
CN1C2=NC=NC(=C2C(=N1)C3=CC4=C(C=C3)OC=CC4=O)N

> <PUBCHEM_CACTVS_TPSA>
95.9

> <PUBCHEM_MONOISOTOPIC_WEIGHT>
293.09127461

> <PUBCHEM_TOTAL_CHARGE>
0

> <PUBCHEM_HEAVY_ATOM_COUNT>
22

> <PUBCHEM_ATOM_DEF_STEREO_COUNT>
0

> <PUBCHEM_ATOM_UDEF_STEREO_COUNT>
0

> <PUBCHEM_BOND_DEF_STEREO_COUNT>
0

> <PUBCHEM_BOND_UDEF_STEREO_COUNT>
0

> <PUBCHEM_ISOTOPIC_ATOM_COUNT>
0

> <PUBCHEM_COMPONENT_COUNT>
1

> <PUBCHEM_CACTVS_TAUTO_COUNT>
-1

> <PUBCHEM_COORDINATE_TYPE>
1
5
255

> <PUBCHEM_BONDANNOTATIONS>
1  16  8
1  22  8
10  12  8
10  14  8
12  13  8
13  16  8
13  19  8
14  17  8
16  17  8
19  21  8
21  22  8
3  11  8
3  4  8
4  8  8
5  11  8
5  20  8
6  15  8
6  20  8
8  9  8
9  11  8
9  15  8

$$$$
