13984334
  -OEChem-03202502482D

 51 53  0     0  0  0  0  0  0999 V2000
    3.0202    1.1634    0.0000 O   0  0  0  0  0  0  0  0  0  0  0  0
    6.4843    1.1634    0.0000 O   0  0  0  0  0  0  0  0  0  0  0  0
    7.3503    5.6634    0.0000 O   0  0  0  0  0  0  0  0  0  0  0  0
    4.7522    1.1634    0.0000 N   0  0  0  0  0  0  0  0  0  0  0  0
    3.8271   -3.3403    0.0000 N   0  0  0  0  0  0  0  0  0  0  0  0
    5.6183    3.6634    0.0000 N   0  0  0  0  0  0  0  0  0  0  0  0
    4.7522   -0.8366    0.0000 C   0  0  0  0  0  0  0  0  0  0  0  0
    3.8862   -0.3366    0.0000 C   0  0  0  0  0  0  0  0  0  0  0  0
    4.7362   -1.8781    0.0000 C   0  0  0  0  0  0  0  0  0  0  0  0
    5.6183   -0.3366    0.0000 C   0  0  0  0  0  0  0  0  0  0  0  0
    3.8591   -2.3408    0.0000 C   0  0  0  0  0  0  0  0  0  0  0  0
    4.7522    2.1634    0.0000 C   0  0  0  0  0  0  0  0  0  0  0  0
    3.8862    0.6634    0.0000 C   0  0  0  0  0  0  0  0  0  0  0  0
    5.6183    0.6634    0.0000 C   0  0  0  0  0  0  0  0  0  0  0  0
    3.0268   -0.8314    0.0000 C   0  0  0  0  0  0  0  0  0  0  0  0
    3.0133   -1.8230    0.0000 C   0  0  0  0  0  0  0  0  0  0  0  0
    5.6342   -2.4058    0.0000 C   0  0  0  0  0  0  0  0  0  0  0  0
    5.6183    2.6634    0.0000 C   0  0  0  0  0  0  0  0  0  0  0  0
    6.5283   -0.8434    0.0000 C   0  0  0  0  0  0  0  0  0  0  0  0
    2.9455   -3.8124    0.0000 C   0  0  0  0  0  0  0  0  0  0  0  0
    6.5363   -1.8850    0.0000 C   0  0  0  0  0  0  0  0  0  0  0  0
    2.9136   -4.8119    0.0000 C   0  0  0  0  0  0  0  0  0  0  0  0
    2.0320   -5.2839    0.0000 C   0  0  0  0  0  0  0  0  0  0  0  0
    6.4843    4.1634    0.0000 C   0  0  0  0  0  0  0  0  0  0  0  0
    2.0000   -6.2834    0.0000 C   0  0  0  0  0  0  0  0  0  0  0  0
    6.4843    5.1634    0.0000 C   0  0  0  0  0  0  0  0  0  0  0  0
    4.5402    2.7460    0.0000 H   0  0  0  0  0  0  0  0  0  0  0  0
    4.1417    2.0558    0.0000 H   0  0  0  0  0  0  0  0  0  0  0  0
    2.4921   -0.5174    0.0000 H   0  0  0  0  0  0  0  0  0  0  0  0
    2.4704   -2.1223    0.0000 H   0  0  0  0  0  0  0  0  0  0  0  0
    5.6318   -3.0258    0.0000 H   0  0  0  0  0  0  0  0  0  0  0  0
    5.8303    2.0808    0.0000 H   0  0  0  0  0  0  0  0  0  0  0  0
    6.2289    2.7711    0.0000 H   0  0  0  0  0  0  0  0  0  0  0  0
    7.0616   -0.5272    0.0000 H   0  0  0  0  0  0  0  0  0  0  0  0
    4.3539   -3.6674    0.0000 H   0  0  0  0  0  0  0  0  0  0  0  0
    2.7522   -3.2233    0.0000 H   0  0  0  0  0  0  0  0  0  0  0  0
    2.3318   -3.9005    0.0000 H   0  0  0  0  0  0  0  0  0  0  0  0
    7.0744   -2.1930    0.0000 H   0  0  0  0  0  0  0  0  0  0  0  0
    3.1069   -5.4010    0.0000 H   0  0  0  0  0  0  0  0  0  0  0  0
    3.5273   -4.7238    0.0000 H   0  0  0  0  0  0  0  0  0  0  0  0
    1.8387   -4.6948    0.0000 H   0  0  0  0  0  0  0  0  0  0  0  0
    1.4183   -5.3720    0.0000 H   0  0  0  0  0  0  0  0  0  0  0  0
    5.0813    3.9734    0.0000 H   0  0  0  0  0  0  0  0  0  0  0  0
    6.6964    3.5808    0.0000 H   0  0  0  0  0  0  0  0  0  0  0  0
    7.0949    4.2711    0.0000 H   0  0  0  0  0  0  0  0  0  0  0  0
    1.3803   -6.2636    0.0000 H   0  0  0  0  0  0  0  0  0  0  0  0
    1.9802   -6.9031    0.0000 H   0  0  0  0  0  0  0  0  0  0  0  0
    2.6197   -6.3032    0.0000 H   0  0  0  0  0  0  0  0  0  0  0  0
    6.2722    5.7460    0.0000 H   0  0  0  0  0  0  0  0  0  0  0  0
    5.8737    5.0558    0.0000 H   0  0  0  0  0  0  0  0  0  0  0  0
    7.3503    6.2834    0.0000 H   0  0  0  0  0  0  0  0  0  0  0  0
  1 13  2  0  0  0  0
  2 14  2  0  0  0  0
  3 26  1  0  0  0  0
  3 51  1  0  0  0  0
  4 12  1  0  0  0  0
  4 13  1  0  0  0  0
  4 14  1  0  0  0  0
  5 11  1  0  0  0  0
  5 20  1  0  0  0  0
  5 35  1  0  0  0  0
  6 18  1  0  0  0  0
  6 24  1  0  0  0  0
  6 43  1  0  0  0  0
  7  8  2  0  0  0  0
  7  9  1  0  0  0  0
  7 10  1  0  0  0  0
  8 13  1  0  0  0  0
  8 15  1  0  0  0  0
  9 11  2  0  0  0  0
  9 17  1  0  0  0  0
 10 14  1  0  0  0  0
 10 19  2  0  0  0  0
 11 16  1  0  0  0  0
 12 18  1  0  0  0  0
 12 27  1  0  0  0  0
 12 28  1  0  0  0  0
 15 16  2  0  0  0  0
 15 29  1  0  0  0  0
 16 30  1  0  0  0  0
 17 21  2  0  0  0  0
 17 31  1  0  0  0  0
 18 32  1  0  0  0  0
 18 33  1  0  0  0  0
 19 21  1  0  0  0  0
 19 34  1  0  0  0  0
 20 22  1  0  0  0  0
 20 36  1  0  0  0  0
 20 37  1  0  0  0  0
 21 38  1  0  0  0  0
 22 23  1  0  0  0  0
 22 39  1  0  0  0  0
 22 40  1  0  0  0  0
 23 25  1  0  0  0  0
 23 41  1  0  0  0  0
 23 42  1  0  0  0  0
 24 26  1  0  0  0  0
 24 44  1  0  0  0  0
 24 45  1  0  0  0  0
 25 46  1  0  0  0  0
 25 47  1  0  0  0  0
 25 48  1  0  0  0  0
 26 49  1  0  0  0  0
 26 50  1  0  0  0  0
M  END
> <PUBCHEM_COMPOUND_CID>
13984334

> <PUBCHEM_COMPOUND_CANONICALIZED>
1

> <PUBCHEM_CACTVS_COMPLEXITY>
499

> <PUBCHEM_CACTVS_HBOND_ACCEPTOR>
5

> <PUBCHEM_CACTVS_HBOND_DONOR>
3

> <PUBCHEM_CACTVS_ROTATABLE_BOND>
9

> <PUBCHEM_CACTVS_SUBSKEYS>
AAADceB7MAAAAAAAAAAAAAAAAAAAAAAAAAA8YIAAAAAAAADxUAAAHgAQCAAADAjhmAYywMPAAgCIAiVSUACCAAAlAgAIiIEIZMgKcDLAlZGUIQhgliDYyYcYi8CeiAACQAASAAAQAASAACQAAAAAAAAAAA==

> <PUBCHEM_IUPAC_OPENEYE_NAME>
6-(butylamino)-2-[2-(2-hydroxyethylamino)ethyl]benzo[de]isoquinoline-1,3-dione

> <PUBCHEM_IUPAC_CAS_NAME>
6-(butylamino)-2-[2-(2-hydroxyethylamino)ethyl]benzo[de]isoquinoline-1,3-dione

> <PUBCHEM_IUPAC_NAME_MARKUP>
6-(butylamino)-2-[2-(2-hydroxyethylamino)ethyl]benzo[de]isoquinoline-1,3-dione

> <PUBCHEM_IUPAC_NAME>
6-(butylamino)-2-[2-(2-hydroxyethylamino)ethyl]benzo[de]isoquinoline-1,3-dione

> <PUBCHEM_IUPAC_SYSTEMATIC_NAME>
6-(butylamino)-2-[2-(2-hydroxyethylamino)ethyl]benzo[de]isoquinoline-1,3-dione

> <PUBCHEM_IUPAC_TRADITIONAL_NAME>
6-(butylamino)-2-[2-(2-hydroxyethylamino)ethyl]benzo[de]isoquinoline-1,3-quinone

> <PUBCHEM_IUPAC_INCHI>
InChI=1S/C20H25N3O3/c1-2-3-9-22-17-8-7-16-18-14(17)5-4-6-15(18)19(25)23(20(16)26)12-10-21-11-13-24/h4-8,21-22,24H,2-3,9-13H2,1H3

> <PUBCHEM_IUPAC_INCHIKEY>
ZFMQMTAMXRLLHN-UHFFFAOYSA-N

> <PUBCHEM_XLOGP3_AA>
2.3

> <PUBCHEM_EXACT_MASS>
355.18959167

> <PUBCHEM_MOLECULAR_FORMULA>
C20H25N3O3

> <PUBCHEM_MOLECULAR_WEIGHT>
355.4

> <PUBCHEM_SMILES>
CCCCNC1=C2C=CC=C3C2=C(C=C1)C(=O)N(C3=O)CCNCCO

> <PUBCHEM_OPENEYE_CAN_SMILES>
CCCCNC1=C2C=CC=C3C2=C(C=C1)C(=O)N(C3=O)CCNCCO

> <PUBCHEM_OPENEYE_ISO_SMILES>
CCCCNC1=C2C=CC=C3C2=C(C=C1)C(=O)N(C3=O)CCNCCO

> <PUBCHEM_CACTVS_TPSA>
81.7

> <PUBCHEM_MONOISOTOPIC_WEIGHT>
355.18959167

> <PUBCHEM_TOTAL_CHARGE>
0

> <PUBCHEM_HEAVY_ATOM_COUNT>
26

> <PUBCHEM_ATOM_DEF_STEREO_COUNT>
0

> <PUBCHEM_ATOM_UDEF_STEREO_COUNT>
0

> <PUBCHEM_BOND_DEF_STEREO_COUNT>
0

> <PUBCHEM_BOND_UDEF_STEREO_COUNT>
0

> <PUBCHEM_ISOTOPIC_ATOM_COUNT>
0

> <PUBCHEM_COMPONENT_COUNT>
1

> <PUBCHEM_CACTVS_TAUTO_COUNT>
-1

> <PUBCHEM_COORDINATE_TYPE>
1
5
255

> <PUBCHEM_BONDANNOTATIONS>
10  19  8
11  16  8
15  16  8
17  21  8
19  21  8
7  10  8
7  8  8
7  9  8
8  15  8
9  11  8
9  17  8

$$$$
