46228822
  -OEChem-03202507102D

 60 64  0     0  0  0  0  0  0999 V2000
    9.5991    0.0264    0.0000 O   0  0  0  0  0  0  0  0  0  0  0  0
    6.1350   -0.9736    0.0000 O   0  0  0  0  0  0  0  0  0  0  0  0
   12.9950   -1.9736    0.0000 O   0  0  0  0  0  0  0  0  0  0  0  0
    3.4894    0.4332    0.0000 N   0  0  0  0  0  0  0  0  0  0  0  0
    2.8203   -0.3100    0.0000 N   0  0  0  0  0  0  0  0  0  0  0  0
    5.2690    0.5264    0.0000 N   0  0  0  0  0  0  0  0  0  0  0  0
   11.4114   -1.1688    0.0000 N   0  0  0  0  0  0  0  0  0  0  0  0
   11.4114   -2.7783    0.0000 N   0  0  0  0  0  0  0  0  0  0  0  0
    2.9136   -2.0895    0.0000 C   0  0  0  0  0  0  0  0  0  0  0  0
    3.3203   -1.1760    0.0000 C   0  0  0  0  0  0  0  0  0  0  0  0
    2.5068   -3.0031    0.0000 C   0  0  0  0  0  0  0  0  0  0  0  0
    3.8271   -2.4963    0.0000 C   0  0  0  0  0  0  0  0  0  0  0  0
    2.0000   -1.6828    0.0000 C   0  0  0  0  0  0  0  0  0  0  0  0
    4.2984   -0.9681    0.0000 C   0  0  0  0  0  0  0  0  0  0  0  0
    4.4030    0.0264    0.0000 C   0  0  0  0  0  0  0  0  0  0  0  0
    3.2815    1.4113    0.0000 C   0  0  0  0  0  0  0  0  0  0  0  0
    6.1350    0.0264    0.0000 C   0  0  0  0  0  0  0  0  0  0  0  0
    2.3304    1.7203    0.0000 C   0  0  0  0  0  0  0  0  0  0  0  0
    4.0246    2.0804    0.0000 C   0  0  0  0  0  0  0  0  0  0  0  0
    7.0010    0.5264    0.0000 C   0  0  0  0  0  0  0  0  0  0  0  0
   10.4651   -1.4736    0.0000 C   0  0  0  0  0  0  0  0  0  0  0  0
   10.4651   -2.4736    0.0000 C   0  0  0  0  0  0  0  0  0  0  0  0
    9.5991   -0.9736    0.0000 C   0  0  0  0  0  0  0  0  0  0  0  0
    2.1225    2.6985    0.0000 C   0  0  0  0  0  0  0  0  0  0  0  0
    3.8167    3.0586    0.0000 C   0  0  0  0  0  0  0  0  0  0  0  0
    7.8671    0.0264    0.0000 C   0  0  0  0  0  0  0  0  0  0  0  0
    8.7331    0.5264    0.0000 C   0  0  0  0  0  0  0  0  0  0  0  0
    2.8657    3.3676    0.0000 C   0  0  0  0  0  0  0  0  0  0  0  0
    7.0010    1.5264    0.0000 C   0  0  0  0  0  0  0  0  0  0  0  0
    9.5991   -2.9736    0.0000 C   0  0  0  0  0  0  0  0  0  0  0  0
    8.7331   -1.4736    0.0000 C   0  0  0  0  0  0  0  0  0  0  0  0
   11.9950   -1.9736    0.0000 C   0  0  0  0  0  0  0  0  0  0  0  0
    8.7331   -2.4736    0.0000 C   0  0  0  0  0  0  0  0  0  0  0  0
    8.7331    1.5264    0.0000 C   0  0  0  0  0  0  0  0  0  0  0  0
    7.8671    2.0264    0.0000 C   0  0  0  0  0  0  0  0  0  0  0  0
    1.9404   -2.7509    0.0000 H   0  0  0  0  0  0  0  0  0  0  0  0
    2.2546   -3.5695    0.0000 H   0  0  0  0  0  0  0  0  0  0  0  0
    3.0732   -3.2553    0.0000 H   0  0  0  0  0  0  0  0  0  0  0  0
    3.5749   -3.0627    0.0000 H   0  0  0  0  0  0  0  0  0  0  0  0
    4.3935   -2.7484    0.0000 H   0  0  0  0  0  0  0  0  0  0  0  0
    4.0793   -1.9299    0.0000 H   0  0  0  0  0  0  0  0  0  0  0  0
    2.2522   -1.1164    0.0000 H   0  0  0  0  0  0  0  0  0  0  0  0
    1.4336   -1.4306    0.0000 H   0  0  0  0  0  0  0  0  0  0  0  0
    1.7478   -2.2492    0.0000 H   0  0  0  0  0  0  0  0  0  0  0  0
    4.7592   -1.3829    0.0000 H   0  0  0  0  0  0  0  0  0  0  0  0
    5.2690    1.1464    0.0000 H   0  0  0  0  0  0  0  0  0  0  0  0
    1.8697    1.3055    0.0000 H   0  0  0  0  0  0  0  0  0  0  0  0
    4.6143    1.8889    0.0000 H   0  0  0  0  0  0  0  0  0  0  0  0
    1.5329    2.8901    0.0000 H   0  0  0  0  0  0  0  0  0  0  0  0
    4.2775    3.4735    0.0000 H   0  0  0  0  0  0  0  0  0  0  0  0
    7.8671   -0.5936    0.0000 H   0  0  0  0  0  0  0  0  0  0  0  0
   11.6040   -0.5795    0.0000 H   0  0  0  0  0  0  0  0  0  0  0  0
   11.6040   -3.3676    0.0000 H   0  0  0  0  0  0  0  0  0  0  0  0
    6.4641    1.8364    0.0000 H   0  0  0  0  0  0  0  0  0  0  0  0
    2.7368    3.9741    0.0000 H   0  0  0  0  0  0  0  0  0  0  0  0
    9.5991   -3.5936    0.0000 H   0  0  0  0  0  0  0  0  0  0  0  0
    8.1962   -1.1636    0.0000 H   0  0  0  0  0  0  0  0  0  0  0  0
    8.1962   -2.7836    0.0000 H   0  0  0  0  0  0  0  0  0  0  0  0
    9.2700    1.8364    0.0000 H   0  0  0  0  0  0  0  0  0  0  0  0
    7.8671    2.6464    0.0000 H   0  0  0  0  0  0  0  0  0  0  0  0
  1 23  1  0  0  0  0
  1 27  1  0  0  0  0
  2 17  2  0  0  0  0
  3 32  2  0  0  0  0
  4  5  1  0  0  0  0
  4 15  1  0  0  0  0
  4 16  1  0  0  0  0
  5 10  2  0  0  0  0
  6 15  1  0  0  0  0
  6 17  1  0  0  0  0
  6 46  1  0  0  0  0
  7 21  1  0  0  0  0
  7 32  1  0  0  0  0
  7 52  1  0  0  0  0
  8 22  1  0  0  0  0
  8 32  1  0  0  0  0
  8 53  1  0  0  0  0
  9 10  1  0  0  0  0
  9 11  1  0  0  0  0
  9 12  1  0  0  0  0
  9 13  1  0  0  0  0
 10 14  1  0  0  0  0
 11 36  1  0  0  0  0
 11 37  1  0  0  0  0
 11 38  1  0  0  0  0
 12 39  1  0  0  0  0
 12 40  1  0  0  0  0
 12 41  1  0  0  0  0
 13 42  1  0  0  0  0
 13 43  1  0  0  0  0
 13 44  1  0  0  0  0
 14 15  2  0  0  0  0
 14 45  1  0  0  0  0
 16 18  2  0  0  0  0
 16 19  1  0  0  0  0
 17 20  1  0  0  0  0
 18 24  1  0  0  0  0
 18 47  1  0  0  0  0
 19 25  2  0  0  0  0
 19 48  1  0  0  0  0
 20 26  2  0  0  0  0
 20 29  1  0  0  0  0
 21 22  2  0  0  0  0
 21 23  1  0  0  0  0
 22 30  1  0  0  0  0
 23 31  2  0  0  0  0
 24 28  2  0  0  0  0
 24 49  1  0  0  0  0
 25 28  1  0  0  0  0
 25 50  1  0  0  0  0
 26 27  1  0  0  0  0
 26 51  1  0  0  0  0
 27 34  2  0  0  0  0
 28 55  1  0  0  0  0
 29 35  2  0  0  0  0
 29 54  1  0  0  0  0
 30 33  2  0  0  0  0
 30 56  1  0  0  0  0
 31 33  1  0  0  0  0
 31 57  1  0  0  0  0
 33 58  1  0  0  0  0
 34 35  1  0  0  0  0
 34 59  1  0  0  0  0
 35 60  1  0  0  0  0
M  END
> <PUBCHEM_COMPOUND_CID>
46228822

> <PUBCHEM_COMPOUND_CANONICALIZED>
1

> <PUBCHEM_CACTVS_COMPLEXITY>
764

> <PUBCHEM_CACTVS_HBOND_ACCEPTOR>
4

> <PUBCHEM_CACTVS_HBOND_DONOR>
3

> <PUBCHEM_CACTVS_ROTATABLE_BOND>
6

> <PUBCHEM_CACTVS_SUBSKEYS>
AAADceB7sAAAAAAAAAAAAAAAAAAAAWLAAAAwYMAAAAAAAFgB1AAAHgAYAAAADgyBngAz9pLIBACqAydydACSDCMlIgAdmCE3fNiOZnLE/duXvSj+3RvY6ae62BOPAAABAgAAECAAAAIEAAAgQAAAAAAAAA==

> <PUBCHEM_IUPAC_OPENEYE_NAME>
N-(5-tert-butyl-2-phenyl-pyrazol-3-yl)-3-[(2-oxo-1,3-dihydrobenzimidazol-4-yl)oxy]benzamide

> <PUBCHEM_IUPAC_CAS_NAME>
N-(5-tert-butyl-2-phenyl-3-pyrazolyl)-3-[(2-oxo-1,3-dihydrobenzimidazol-4-yl)oxy]benzamide

> <PUBCHEM_IUPAC_NAME_MARKUP>
<I>N</I>-(5-<I>tert</I>-butyl-2-phenylpyrazol-3-yl)-3-[(2-oxo-1,3-dihydrobenzimidazol-4-yl)oxy]benzamide

> <PUBCHEM_IUPAC_NAME>
N-(5-tert-butyl-2-phenylpyrazol-3-yl)-3-[(2-oxo-1,3-dihydrobenzimidazol-4-yl)oxy]benzamide

> <PUBCHEM_IUPAC_SYSTEMATIC_NAME>
N-(5-tert-butyl-2-phenyl-pyrazol-3-yl)-3-[(2-oxidanylidene-1,3-dihydrobenzimidazol-4-yl)oxy]benzamide

> <PUBCHEM_IUPAC_TRADITIONAL_NAME>
N-(5-tert-butyl-2-phenyl-pyrazol-3-yl)-3-[(2-keto-1,3-dihydrobenzimidazol-4-yl)oxy]benzamide

> <PUBCHEM_IUPAC_INCHI>
InChI=1S/C27H25N5O3/c1-27(2,3)22-16-23(32(31-22)18-10-5-4-6-11-18)29-25(33)17-9-7-12-19(15-17)35-21-14-8-13-20-24(21)30-26(34)28-20/h4-16H,1-3H3,(H,29,33)(H2,28,30,34)

> <PUBCHEM_IUPAC_INCHIKEY>
GLDPXWNDIUPOHH-UHFFFAOYSA-N

> <PUBCHEM_XLOGP3_AA>
4.9

> <PUBCHEM_EXACT_MASS>
467.19573968

> <PUBCHEM_MOLECULAR_FORMULA>
C27H25N5O3

> <PUBCHEM_MOLECULAR_WEIGHT>
467.5

> <PUBCHEM_SMILES>
CC(C)(C)C1=NN(C(=C1)NC(=O)C2=CC(=CC=C2)OC3=CC=CC4=C3NC(=O)N4)C5=CC=CC=C5

> <PUBCHEM_OPENEYE_CAN_SMILES>
CC(C)(C)C1=NN(C(=C1)NC(=O)C2=CC(=CC=C2)OC3=CC=CC4=C3NC(=O)N4)C5=CC=CC=C5

> <PUBCHEM_OPENEYE_ISO_SMILES>
CC(C)(C)C1=NN(C(=C1)NC(=O)C2=CC(=CC=C2)OC3=CC=CC4=C3NC(=O)N4)C5=CC=CC=C5

> <PUBCHEM_CACTVS_TPSA>
97.3

> <PUBCHEM_MONOISOTOPIC_WEIGHT>
467.19573968

> <PUBCHEM_TOTAL_CHARGE>
0

> <PUBCHEM_HEAVY_ATOM_COUNT>
35

> <PUBCHEM_ATOM_DEF_STEREO_COUNT>
0

> <PUBCHEM_ATOM_UDEF_STEREO_COUNT>
0

> <PUBCHEM_BOND_DEF_STEREO_COUNT>
0

> <PUBCHEM_BOND_UDEF_STEREO_COUNT>
0

> <PUBCHEM_ISOTOPIC_ATOM_COUNT>
0

> <PUBCHEM_COMPONENT_COUNT>
1

> <PUBCHEM_CACTVS_TAUTO_COUNT>
-1

> <PUBCHEM_COORDINATE_TYPE>
1
5
255

> <PUBCHEM_BONDANNOTATIONS>
10  14  8
14  15  8
16  18  8
16  19  8
18  24  8
19  25  8
20  26  8
20  29  8
21  22  8
21  23  8
22  30  8
23  31  8
24  28  8
25  28  8
26  27  8
27  34  8
29  35  8
30  33  8
31  33  8
34  35  8
4  15  8
4  5  8
5  10  8
7  21  8
7  32  8
8  22  8
8  32  8

$$$$
