44160269
  -OEChem-03202507122D

 58 61  0     1  0  0  0  0  0999 V2000
    2.8660    1.9400    0.0000 N   0  0  3  0  0  0  0  0  0  0  0  0
    4.5981    3.9400    0.0000 N   0  0  0  0  0  0  0  0  0  0  0  0
    6.3301   -2.0600    0.0000 N   0  0  0  0  0  0  0  0  0  0  0  0
    9.8744   -3.8647    0.0000 N   0  0  0  0  0  0  0  0  0  0  0  0
    3.7320   -3.5600    0.0000 N   0  0  0  0  0  0  0  0  0  0  0  0
    7.1962   -4.5600    0.0000 N   0  0  0  0  0  0  0  0  0  0  0  0
    3.7320    3.4400    0.0000 C   0  0  1  0  0  0  0  0  0  0  0  0
    3.7320    2.4400    0.0000 C   0  0  0  0  0  0  0  0  0  0  0  0
    2.8660    3.9400    0.0000 C   0  0  0  0  0  0  0  0  0  0  0  0
    2.0000    3.4400    0.0000 C   0  0  0  0  0  0  0  0  0  0  0  0
    2.0000    2.4400    0.0000 C   0  0  0  0  0  0  0  0  0  0  0  0
    2.8660    0.9400    0.0000 C   0  0  0  0  0  0  0  0  0  0  0  0
    3.7320    0.4400    0.0000 C   0  0  0  0  0  0  0  0  0  0  0  0
    3.7320   -0.5600    0.0000 C   0  0  0  0  0  0  0  0  0  0  0  0
    4.5981   -1.0600    0.0000 C   0  0  0  0  0  0  0  0  0  0  0  0
    4.5981   -2.0600    0.0000 C   0  0  0  0  0  0  0  0  0  0  0  0
    8.0622   -2.0600    0.0000 C   0  0  0  0  0  0  0  0  0  0  0  0
    8.9282   -2.5600    0.0000 C   0  0  0  0  0  0  0  0  0  0  0  0
    7.1962   -2.5600    0.0000 C   0  0  0  0  0  0  0  0  0  0  0  0
    5.4641   -2.5600    0.0000 C   0  0  0  0  0  0  0  0  0  0  0  0
    8.9282   -3.5600    0.0000 C   0  0  0  0  0  0  0  0  0  0  0  0
    7.1962   -3.5600    0.0000 C   0  0  0  0  0  0  0  0  0  0  0  0
    8.0622   -4.0600    0.0000 C   0  0  0  0  0  0  0  0  0  0  0  0
    9.8744   -2.2553    0.0000 C   0  0  0  0  0  0  0  0  0  0  0  0
    8.0622   -1.0600    0.0000 C   0  0  0  0  0  0  0  0  0  0  0  0
    3.7320   -2.5600    0.0000 C   0  0  0  0  0  0  0  0  0  0  0  0
    5.4641   -3.5600    0.0000 C   0  0  0  0  0  0  0  0  0  0  0  0
   10.4580   -3.0600    0.0000 C   0  0  0  0  0  0  0  0  0  0  0  0
    4.5981   -4.0600    0.0000 C   0  0  0  0  0  0  0  0  0  0  0  0
    6.3301   -4.0600    0.0000 C   0  0  0  0  0  0  0  0  0  0  0  0
    3.7320    4.0600    0.0000 H   0  0  0  0  0  0  0  0  0  0  0  0
    3.9441    1.8574    0.0000 H   0  0  0  0  0  0  0  0  0  0  0  0
    4.3426    2.5477    0.0000 H   0  0  0  0  0  0  0  0  0  0  0  0
    3.2646    4.4150    0.0000 H   0  0  0  0  0  0  0  0  0  0  0  0
    2.4675    4.4150    0.0000 H   0  0  0  0  0  0  0  0  0  0  0  0
    1.7880    4.0226    0.0000 H   0  0  0  0  0  0  0  0  0  0  0  0
    1.3894    3.3323    0.0000 H   0  0  0  0  0  0  0  0  0  0  0  0
    1.3894    2.5477    0.0000 H   0  0  0  0  0  0  0  0  0  0  0  0
    1.7880    1.8574    0.0000 H   0  0  0  0  0  0  0  0  0  0  0  0
    2.2554    1.0477    0.0000 H   0  0  0  0  0  0  0  0  0  0  0  0
    2.6540    0.3574    0.0000 H   0  0  0  0  0  0  0  0  0  0  0  0
    4.5981    4.5600    0.0000 H   0  0  0  0  0  0  0  0  0  0  0  0
    5.1350    3.6300    0.0000 H   0  0  0  0  0  0  0  0  0  0  0  0
    4.3426    0.3323    0.0000 H   0  0  0  0  0  0  0  0  0  0  0  0
    3.9441    1.0226    0.0000 H   0  0  0  0  0  0  0  0  0  0  0  0
    3.1951   -0.8700    0.0000 H   0  0  0  0  0  0  0  0  0  0  0  0
    5.1350   -0.7500    0.0000 H   0  0  0  0  0  0  0  0  0  0  0  0
    6.3301   -1.4400    0.0000 H   0  0  0  0  0  0  0  0  0  0  0  0
    6.6592   -3.8700    0.0000 H   0  0  0  0  0  0  0  0  0  0  0  0
    8.0622   -4.6800    0.0000 H   0  0  0  0  0  0  0  0  0  0  0  0
   10.0670   -1.6660    0.0000 H   0  0  0  0  0  0  0  0  0  0  0  0
   10.0670   -4.4540    0.0000 H   0  0  0  0  0  0  0  0  0  0  0  0
    8.6822   -1.0600    0.0000 H   0  0  0  0  0  0  0  0  0  0  0  0
    8.0622   -0.4400    0.0000 H   0  0  0  0  0  0  0  0  0  0  0  0
    7.4422   -1.0600    0.0000 H   0  0  0  0  0  0  0  0  0  0  0  0
    3.1951   -2.2500    0.0000 H   0  0  0  0  0  0  0  0  0  0  0  0
   11.0780   -3.0600    0.0000 H   0  0  0  0  0  0  0  0  0  0  0  0
    4.5981   -4.6800    0.0000 H   0  0  0  0  0  0  0  0  0  0  0  0
  1  8  1  0  0  0  0
  1 11  1  0  0  0  0
  1 12  1  0  0  0  0
  7  2  1  1  0  0  0
  2 42  1  0  0  0  0
  2 43  1  0  0  0  0
  3 19  1  0  0  0  0
  3 20  1  0  0  0  0
  3 48  1  0  0  0  0
  4 21  1  0  0  0  0
  4 28  1  0  0  0  0
  4 52  1  0  0  0  0
  5 26  1  0  0  0  0
  5 29  2  0  0  0  0
  6 30  3  0  0  0  0
  7  8  1  0  0  0  0
  7  9  1  0  0  0  0
  7 31  1  0  0  0  0
  8 32  1  0  0  0  0
  8 33  1  0  0  0  0
  9 10  1  0  0  0  0
  9 34  1  0  0  0  0
  9 35  1  0  0  0  0
 10 11  1  0  0  0  0
 10 36  1  0  0  0  0
 10 37  1  0  0  0  0
 11 38  1  0  0  0  0
 11 39  1  0  0  0  0
 12 13  1  0  0  0  0
 12 40  1  0  0  0  0
 12 41  1  0  0  0  0
 13 14  1  0  0  0  0
 13 44  1  0  0  0  0
 13 45  1  0  0  0  0
 14 15  2  0  0  0  0
 14 46  1  0  0  0  0
 15 16  1  0  0  0  0
 15 47  1  0  0  0  0
 16 20  1  0  0  0  0
 16 26  2  0  0  0  0
 17 18  1  0  0  0  0
 17 19  2  0  0  0  0
 17 25  1  0  0  0  0
 18 21  2  0  0  0  0
 18 24  1  0  0  0  0
 19 22  1  0  0  0  0
 20 27  2  0  0  0  0
 21 23  1  0  0  0  0
 22 23  2  0  0  0  0
 22 49  1  0  0  0  0
 23 50  1  0  0  0  0
 24 28  2  0  0  0  0
 24 51  1  0  0  0  0
 25 53  1  0  0  0  0
 25 54  1  0  0  0  0
 25 55  1  0  0  0  0
 26 56  1  0  0  0  0
 27 29  1  0  0  0  0
 27 30  1  0  0  0  0
 28 57  1  0  0  0  0
 29 58  1  0  0  0  0
M  END
> <PUBCHEM_COMPOUND_CID>
44160269

> <PUBCHEM_COMPOUND_CANONICALIZED>
1

> <PUBCHEM_CACTVS_COMPLEXITY>
626

> <PUBCHEM_CACTVS_HBOND_ACCEPTOR>
5

> <PUBCHEM_CACTVS_HBOND_DONOR>
3

> <PUBCHEM_CACTVS_ROTATABLE_BOND>
6

> <PUBCHEM_CACTVS_SUBSKEYS>
AAADceB7gAAAAAAAAAAAAAAAAAAAAWAAAAA8WIAAAAAAAFgB/AAAHAAQAAAADCjBHgQ+wPPJkACwBzRnRACigCAxAiAI2aA4ZJgI4OLA0dGUJAhgkADIyA8QgIAOgACAQAASAAAAAQCAACQAAAAAAAAAAA==

> <PUBCHEM_IUPAC_OPENEYE_NAME>
5-[(E)-4-[(3R)-3-amino-1-piperidyl]but-1-enyl]-4-[(4-methyl-1H-indol-5-yl)amino]pyridine-3-carbonitrile

> <PUBCHEM_IUPAC_CAS_NAME>
5-[(E)-4-[(3R)-3-amino-1-piperidinyl]but-1-enyl]-4-[(4-methyl-1H-indol-5-yl)amino]-3-pyridinecarbonitrile

> <PUBCHEM_IUPAC_NAME_MARKUP>
5-[(<I>E</I>)-4-[(3<I>R</I>)-3-aminopiperidin-1-yl]but-1-enyl]-4-[(4-methyl-1<I>H</I>-indol-5-yl)amino]pyridine-3-carbonitrile

> <PUBCHEM_IUPAC_NAME>
5-[(E)-4-[(3R)-3-aminopiperidin-1-yl]but-1-enyl]-4-[(4-methyl-1H-indol-5-yl)amino]pyridine-3-carbonitrile

> <PUBCHEM_IUPAC_SYSTEMATIC_NAME>
5-[(E)-4-[(3R)-3-azanylpiperidin-1-yl]but-1-enyl]-4-[(4-methyl-1H-indol-5-yl)amino]pyridine-3-carbonitrile

> <PUBCHEM_IUPAC_TRADITIONAL_NAME>
5-[(E)-4-[(3R)-3-aminopiperidino]but-1-enyl]-4-[(4-methyl-1H-indol-5-yl)amino]nicotinonitrile

> <PUBCHEM_IUPAC_INCHI>
InChI=1S/C24H28N6/c1-17-21-9-10-28-23(21)8-7-22(17)29-24-18(14-27-15-19(24)13-25)5-2-3-11-30-12-4-6-20(26)16-30/h2,5,7-10,14-15,20,28H,3-4,6,11-12,16,26H2,1H3,(H,27,29)/b5-2+/t20-/m1/s1

> <PUBCHEM_IUPAC_INCHIKEY>
KAJIDAUQCMSGGN-XQASTXFUSA-N

> <PUBCHEM_XLOGP3_AA>
3.7

> <PUBCHEM_EXACT_MASS>
400.23754492

> <PUBCHEM_MOLECULAR_FORMULA>
C24H28N6

> <PUBCHEM_MOLECULAR_WEIGHT>
400.5

> <PUBCHEM_SMILES>
CC1=C(C=CC2=C1C=CN2)NC3=C(C=NC=C3/C=C/CCN4CCC[C@H](C4)N)C#N

> <PUBCHEM_OPENEYE_CAN_SMILES>
CC1=C(C=CC2=C1C=CN2)NC3=C(C=NC=C3C=CCCN4CCCC(C4)N)C#N

> <PUBCHEM_OPENEYE_ISO_SMILES>
CC1=C(C=CC2=C1C=CN2)NC3=C(C=NC=C3/C=C/CCN4CCC[C@H](C4)N)C#N

> <PUBCHEM_CACTVS_TPSA>
93.8

> <PUBCHEM_MONOISOTOPIC_WEIGHT>
400.23754492

> <PUBCHEM_TOTAL_CHARGE>
0

> <PUBCHEM_HEAVY_ATOM_COUNT>
30

> <PUBCHEM_ATOM_DEF_STEREO_COUNT>
1

> <PUBCHEM_ATOM_UDEF_STEREO_COUNT>
0

> <PUBCHEM_BOND_DEF_STEREO_COUNT>
1

> <PUBCHEM_BOND_UDEF_STEREO_COUNT>
0

> <PUBCHEM_ISOTOPIC_ATOM_COUNT>
0

> <PUBCHEM_COMPONENT_COUNT>
1

> <PUBCHEM_CACTVS_TAUTO_COUNT>
-1

> <PUBCHEM_COORDINATE_TYPE>
1
5
255

> <PUBCHEM_BONDANNOTATIONS>
16  20  8
16  26  8
17  18  8
17  19  8
18  21  8
18  24  8
19  22  8
7  2  5
20  27  8
21  23  8
22  23  8
24  28  8
27  29  8
4  21  8
4  28  8
5  26  8
5  29  8

$$$$
