24905230
  -OEChem-03192523502D

 43 47  0     0  0  0  0  0  0999 V2000
    8.3568   -2.5513    0.0000 O   0  0  0  0  0  0  0  0  0  0  0  0
    8.3452    0.5179    0.0000 O   0  0  0  0  0  0  0  0  0  0  0  0
    3.7899    0.6812    0.0000 N   0  0  0  0  0  0  0  0  0  0  0  0
    4.7617    0.4720    0.0000 N   0  0  0  0  0  0  0  0  0  0  0  0
    2.3107   -0.3837    0.0000 N   0  0  0  0  0  0  0  0  0  0  0  0
    2.6678   -2.0785    0.0000 N   0  0  0  0  0  0  0  0  0  0  0  0
    4.3142   -2.6166    0.0000 N   0  0  0  0  0  0  0  0  0  0  0  0
    3.3864    1.5962    0.0000 C   0  0  0  0  0  0  0  0  0  0  0  0
    3.8894    2.4605    0.0000 C   0  0  0  0  0  0  0  0  0  0  0  0
    2.4089    1.8075    0.0000 C   0  0  0  0  0  0  0  0  0  0  0  0
    3.2228    3.2059    0.0000 C   0  0  0  0  0  0  0  0  0  0  0  0
    2.3078    2.8024    0.0000 C   0  0  0  0  0  0  0  0  0  0  0  0
    3.2892   -0.1775    0.0000 C   0  0  0  0  0  0  0  0  0  0  0  0
    3.9570   -0.9218    0.0000 C   0  0  0  0  0  0  0  0  0  0  0  0
    4.8648   -0.5167    0.0000 C   0  0  0  0  0  0  0  0  0  0  0  0
    5.7308   -1.0167    0.0000 C   0  0  0  0  0  0  0  0  0  0  0  0
    3.6464   -1.8723    0.0000 C   0  0  0  0  0  0  0  0  0  0  0  0
    6.5968   -0.5167    0.0000 C   0  0  0  0  0  0  0  0  0  0  0  0
    5.7308   -2.0167    0.0000 C   0  0  0  0  0  0  0  0  0  0  0  0
    2.0000   -1.3342    0.0000 C   0  0  0  0  0  0  0  0  0  0  0  0
    7.4629   -1.0167    0.0000 C   0  0  0  0  0  0  0  0  0  0  0  0
    6.5968   -2.5167    0.0000 C   0  0  0  0  0  0  0  0  0  0  0  0
    7.4629   -2.0167    0.0000 C   0  0  0  0  0  0  0  0  0  0  0  0
    8.3568   -0.4820    0.0000 C   0  0  0  0  0  0  0  0  0  0  0  0
    9.2629   -0.9959    0.0000 C   0  0  0  0  0  0  0  0  0  0  0  0
    9.2629   -2.0375    0.0000 C   0  0  0  0  0  0  0  0  0  0  0  0
    2.9945    1.1157    0.0000 H   0  0  0  0  0  0  0  0  0  0  0  0
    4.3897    2.0943    0.0000 H   0  0  0  0  0  0  0  0  0  0  0  0
    4.3058    2.9198    0.0000 H   0  0  0  0  0  0  0  0  0  0  0  0
    1.7889    1.8096    0.0000 H   0  0  0  0  0  0  0  0  0  0  0  0
    2.3420    1.1911    0.0000 H   0  0  0  0  0  0  0  0  0  0  0  0
    3.7256    3.5686    0.0000 H   0  0  0  0  0  0  0  0  0  0  0  0
    2.9146    3.7440    0.0000 H   0  0  0  0  0  0  0  0  0  0  0  0
    2.1183    3.3927    0.0000 H   0  0  0  0  0  0  0  0  0  0  0  0
    1.7010    2.6756    0.0000 H   0  0  0  0  0  0  0  0  0  0  0  0
    6.5968    0.1033    0.0000 H   0  0  0  0  0  0  0  0  0  0  0  0
    5.1939   -2.3267    0.0000 H   0  0  0  0  0  0  0  0  0  0  0  0
    1.3933   -1.4621    0.0000 H   0  0  0  0  0  0  0  0  0  0  0  0
    6.5968   -3.1367    0.0000 H   0  0  0  0  0  0  0  0  0  0  0  0
    4.1216   -3.2059    0.0000 H   0  0  0  0  0  0  0  0  0  0  0  0
    4.9209   -2.4888    0.0000 H   0  0  0  0  0  0  0  0  0  0  0  0
    9.7986   -0.6838    0.0000 H   0  0  0  0  0  0  0  0  0  0  0  0
    9.7986   -2.3496    0.0000 H   0  0  0  0  0  0  0  0  0  0  0  0
  1 23  1  0  0  0  0
  1 26  1  0  0  0  0
  2 24  2  0  0  0  0
  3  4  1  0  0  0  0
  3  8  1  0  0  0  0
  3 13  1  0  0  0  0
  4 15  2  0  0  0  0
  5 13  2  0  0  0  0
  5 20  1  0  0  0  0
  6 17  1  0  0  0  0
  6 20  2  0  0  0  0
  7 17  1  0  0  0  0
  7 40  1  0  0  0  0
  7 41  1  0  0  0  0
  8  9  1  0  0  0  0
  8 10  1  0  0  0  0
  8 27  1  0  0  0  0
  9 11  1  0  0  0  0
  9 28  1  0  0  0  0
  9 29  1  0  0  0  0
 10 12  1  0  0  0  0
 10 30  1  0  0  0  0
 10 31  1  0  0  0  0
 11 12  1  0  0  0  0
 11 32  1  0  0  0  0
 11 33  1  0  0  0  0
 12 34  1  0  0  0  0
 12 35  1  0  0  0  0
 13 14  1  0  0  0  0
 14 15  1  0  0  0  0
 14 17  2  0  0  0  0
 15 16  1  0  0  0  0
 16 18  2  0  0  0  0
 16 19  1  0  0  0  0
 18 21  1  0  0  0  0
 18 36  1  0  0  0  0
 19 22  2  0  0  0  0
 19 37  1  0  0  0  0
 20 38  1  0  0  0  0
 21 23  2  0  0  0  0
 21 24  1  0  0  0  0
 22 23  1  0  0  0  0
 22 39  1  0  0  0  0
 24 25  1  0  0  0  0
 25 26  2  0  0  0  0
 25 42  1  0  0  0  0
 26 43  1  0  0  0  0
M  END
> <PUBCHEM_COMPOUND_CID>
24905230

> <PUBCHEM_COMPOUND_CANONICALIZED>
1

> <PUBCHEM_CACTVS_COMPLEXITY>
578

> <PUBCHEM_CACTVS_HBOND_ACCEPTOR>
6

> <PUBCHEM_CACTVS_HBOND_DONOR>
1

> <PUBCHEM_CACTVS_ROTATABLE_BOND>
2

> <PUBCHEM_CACTVS_SUBSKEYS>
AAADceB7sAAAAAAAAAAAAAAAAAAAAeIAAAA8QIAAAAAAAFiB/AAAHgAYAAAADCzhnwY1tt5IFACqA6ZzZACSjCs1oKAd2CEuTNiMLrbE/duEtWhs6BPI6aeY2eGeIAACAAAIAABAAAQAABAAAAAAAAAAAA==

> <PUBCHEM_IUPAC_OPENEYE_NAME>
6-(4-amino-1-cyclopentyl-pyrazolo[3,4-d]pyrimidin-3-yl)chromen-4-one

> <PUBCHEM_IUPAC_CAS_NAME>
6-(4-amino-1-cyclopentyl-3-pyrazolo[3,4-d]pyrimidinyl)-1-benzopyran-4-one

> <PUBCHEM_IUPAC_NAME_MARKUP>
6-(4-amino-1-cyclopentylpyrazolo[3,4-d]pyrimidin-3-yl)chromen-4-one

> <PUBCHEM_IUPAC_NAME>
6-(4-amino-1-cyclopentylpyrazolo[3,4-d]pyrimidin-3-yl)chromen-4-one

> <PUBCHEM_IUPAC_SYSTEMATIC_NAME>
6-(4-azanyl-1-cyclopentyl-pyrazolo[3,4-d]pyrimidin-3-yl)chromen-4-one

> <PUBCHEM_IUPAC_TRADITIONAL_NAME>
6-(4-amino-1-cyclopentyl-pyrazolo[3,4-d]pyrimidin-3-yl)chromone

> <PUBCHEM_IUPAC_INCHI>
InChI=1S/C19H17N5O2/c20-18-16-17(11-5-6-15-13(9-11)14(25)7-8-26-15)23-24(12-3-1-2-4-12)19(16)22-10-21-18/h5-10,12H,1-4H2,(H2,20,21,22)

> <PUBCHEM_IUPAC_INCHIKEY>
HFBMCRRHMRLGSA-UHFFFAOYSA-N

> <PUBCHEM_XLOGP3_AA>
2.3

> <PUBCHEM_EXACT_MASS>
347.13822480

> <PUBCHEM_MOLECULAR_FORMULA>
C19H17N5O2

> <PUBCHEM_MOLECULAR_WEIGHT>
347.4

> <PUBCHEM_SMILES>
C1CCC(C1)N2C3=NC=NC(=C3C(=N2)C4=CC5=C(C=C4)OC=CC5=O)N

> <PUBCHEM_OPENEYE_CAN_SMILES>
C1CCC(C1)N2C3=NC=NC(=C3C(=N2)C4=CC5=C(C=C4)OC=CC5=O)N

> <PUBCHEM_OPENEYE_ISO_SMILES>
C1CCC(C1)N2C3=NC=NC(=C3C(=N2)C4=CC5=C(C=C4)OC=CC5=O)N

> <PUBCHEM_CACTVS_TPSA>
95.9

> <PUBCHEM_MONOISOTOPIC_WEIGHT>
347.13822480

> <PUBCHEM_TOTAL_CHARGE>
0

> <PUBCHEM_HEAVY_ATOM_COUNT>
26

> <PUBCHEM_ATOM_DEF_STEREO_COUNT>
0

> <PUBCHEM_ATOM_UDEF_STEREO_COUNT>
0

> <PUBCHEM_BOND_DEF_STEREO_COUNT>
0

> <PUBCHEM_BOND_UDEF_STEREO_COUNT>
0

> <PUBCHEM_ISOTOPIC_ATOM_COUNT>
0

> <PUBCHEM_COMPONENT_COUNT>
1

> <PUBCHEM_CACTVS_TAUTO_COUNT>
-1

> <PUBCHEM_COORDINATE_TYPE>
1
5
255

> <PUBCHEM_BONDANNOTATIONS>
1  23  8
1  26  8
13  14  8
14  15  8
14  17  8
16  18  8
16  19  8
18  21  8
19  22  8
21  23  8
21  24  8
22  23  8
24  25  8
25  26  8
3  13  8
3  4  8
4  15  8
5  13  8
5  20  8
6  17  8
6  20  8

$$$$
