5895068
  -OEChem-03202504262D

 51 55  0     0  0  0  0  0  0999 V2000
    5.3923    0.4174    0.0000 O   0  0  0  0  0  0  0  0  0  0  0  0
    7.6936   -1.3277    0.0000 O   0  0  0  0  0  0  0  0  0  0  0  0
   12.1366   -4.4888    0.0000 O   0  0  0  0  0  0  0  0  0  0  0  0
   10.5769   -5.2420    0.0000 O   0  0  0  0  0  0  0  0  0  0  0  0
    5.0274    2.1496    0.0000 N   0  0  0  0  0  0  0  0  0  0  0  0
    9.3997   -0.8133    0.0000 N   0  0  0  0  0  0  0  0  0  0  0  0
    9.8726    0.0679    0.0000 N   0  0  0  0  0  0  0  0  0  0  0  0
    4.5274    3.6884    0.0000 N   0  0  0  0  0  0  0  0  0  0  0  0
    6.9478    5.2420    0.0000 N   0  0  0  0  0  0  0  0  0  0  0  0
    6.7328    1.5736    0.0000 C   0  0  0  0  0  0  0  0  0  0  0  0
    5.3364    3.1007    0.0000 C   0  0  0  0  0  0  0  0  0  0  0  0
    7.0547    2.5642    0.0000 C   0  0  0  0  0  0  0  0  0  0  0  0
    4.0274    2.1496    0.0000 C   0  0  0  0  0  0  0  0  0  0  0  0
    5.7123    1.3649    0.0000 C   0  0  0  0  0  0  0  0  0  0  0  0
    8.2802    0.3550    0.0000 C   0  0  0  0  0  0  0  0  0  0  0  0
    6.3518    3.3329    0.0000 C   0  0  0  0  0  0  0  0  0  0  0  0
    7.3991    0.8279    0.0000 C   0  0  0  0  0  0  0  0  0  0  0  0
    3.7183    3.1007    0.0000 C   0  0  0  0  0  0  0  0  0  0  0  0
    9.1807    0.7899    0.0000 C   0  0  0  0  0  0  0  0  0  0  0  0
    8.4156   -0.6358    0.0000 C   0  0  0  0  0  0  0  0  0  0  0  0
    7.6673    3.3546    0.0000 C   0  0  0  0  0  0  0  0  0  0  0  0
    3.3424    1.3649    0.0000 C   0  0  0  0  0  0  0  0  0  0  0  0
    9.8346   -1.7137    0.0000 C   0  0  0  0  0  0  0  0  0  0  0  0
    2.7029    3.3329    0.0000 C   0  0  0  0  0  0  0  0  0  0  0  0
    9.3582    1.7740    0.0000 C   0  0  0  0  0  0  0  0  0  0  0  0
    2.3219    1.5736    0.0000 C   0  0  0  0  0  0  0  0  0  0  0  0
    2.0000    2.5642    0.0000 C   0  0  0  0  0  0  0  0  0  0  0  0
    9.2722   -2.5406    0.0000 C   0  0  0  0  0  0  0  0  0  0  0  0
   10.8319   -1.7873    0.0000 C   0  0  0  0  0  0  0  0  0  0  0  0
    6.6498    4.2875    0.0000 C   0  0  0  0  0  0  0  0  0  0  0  0
    9.7071   -3.4411    0.0000 C   0  0  0  0  0  0  0  0  0  0  0  0
   11.2668   -2.6878    0.0000 C   0  0  0  0  0  0  0  0  0  0  0  0
   10.7044   -3.5147    0.0000 C   0  0  0  0  0  0  0  0  0  0  0  0
   11.1393   -4.4152    0.0000 C   0  0  0  0  0  0  0  0  0  0  0  0
    7.2052    0.2389    0.0000 H   0  0  0  0  0  0  0  0  0  0  0  0
   10.4869    0.1518    0.0000 H   0  0  0  0  0  0  0  0  0  0  0  0
    8.1574    2.9748    0.0000 H   0  0  0  0  0  0  0  0  0  0  0  0
    8.0472    3.8446    0.0000 H   0  0  0  0  0  0  0  0  0  0  0  0
    7.1773    3.7344    0.0000 H   0  0  0  0  0  0  0  0  0  0  0  0
    3.5408    0.7775    0.0000 H   0  0  0  0  0  0  0  0  0  0  0  0
    2.5182    3.9247    0.0000 H   0  0  0  0  0  0  0  0  0  0  0  0
    9.9683    1.6640    0.0000 H   0  0  0  0  0  0  0  0  0  0  0  0
    9.4682    2.3842    0.0000 H   0  0  0  0  0  0  0  0  0  0  0  0
    8.7480    1.8840    0.0000 H   0  0  0  0  0  0  0  0  0  0  0  0
    1.9088    1.1112    0.0000 H   0  0  0  0  0  0  0  0  0  0  0  0
    1.3940    2.6955    0.0000 H   0  0  0  0  0  0  0  0  0  0  0  0
    8.6539   -2.4950    0.0000 H   0  0  0  0  0  0  0  0  0  0  0  0
   11.1806   -1.2747    0.0000 H   0  0  0  0  0  0  0  0  0  0  0  0
    9.3585   -3.9538    0.0000 H   0  0  0  0  0  0  0  0  0  0  0  0
   11.8851   -2.7334    0.0000 H   0  0  0  0  0  0  0  0  0  0  0  0
   12.4063   -5.0471    0.0000 H   0  0  0  0  0  0  0  0  0  0  0  0
  1 14  2  0  0  0  0
  2 20  2  0  0  0  0
  3 34  1  0  0  0  0
  3 51  1  0  0  0  0
  4 34  2  0  0  0  0
  5 11  1  0  0  0  0
  5 13  1  0  0  0  0
  5 14  1  0  0  0  0
  6  7  1  0  0  0  0
  6 20  1  0  0  0  0
  6 23  1  0  0  0  0
  7 19  1  0  0  0  0
  7 36  1  0  0  0  0
  8 11  2  0  0  0  0
  8 18  1  0  0  0  0
  9 30  3  0  0  0  0
 10 12  1  0  0  0  0
 10 14  1  0  0  0  0
 10 17  2  0  0  0  0
 11 16  1  0  0  0  0
 12 16  2  0  0  0  0
 12 21  1  0  0  0  0
 13 18  1  0  0  0  0
 13 22  2  0  0  0  0
 15 17  1  0  0  0  0
 15 19  2  0  0  0  0
 15 20  1  0  0  0  0
 16 30  1  0  0  0  0
 17 35  1  0  0  0  0
 18 24  2  0  0  0  0
 19 25  1  0  0  0  0
 21 37  1  0  0  0  0
 21 38  1  0  0  0  0
 21 39  1  0  0  0  0
 22 26  1  0  0  0  0
 22 40  1  0  0  0  0
 23 28  2  0  0  0  0
 23 29  1  0  0  0  0
 24 27  1  0  0  0  0
 24 41  1  0  0  0  0
 25 42  1  0  0  0  0
 25 43  1  0  0  0  0
 25 44  1  0  0  0  0
 26 27  2  0  0  0  0
 26 45  1  0  0  0  0
 27 46  1  0  0  0  0
 28 31  1  0  0  0  0
 28 47  1  0  0  0  0
 29 32  2  0  0  0  0
 29 48  1  0  0  0  0
 31 33  2  0  0  0  0
 31 49  1  0  0  0  0
 32 33  1  0  0  0  0
 32 50  1  0  0  0  0
 33 34  1  0  0  0  0
M  END
> <PUBCHEM_COMPOUND_CID>
5895068

> <PUBCHEM_COMPOUND_CANONICALIZED>
1

> <PUBCHEM_CACTVS_COMPLEXITY>
1090

> <PUBCHEM_CACTVS_HBOND_ACCEPTOR>
7

> <PUBCHEM_CACTVS_HBOND_DONOR>
2

> <PUBCHEM_CACTVS_ROTATABLE_BOND>
3

> <PUBCHEM_CACTVS_SUBSKEYS>
AAADceB7uAAAAAAAAAAAAAAAAAAAAWIAAAAwYIAAAAAAAFgB9AAAHgAYCAAADAiBnwAz2LduEgC4ByfyfACihC0lEqAbuCEwfNiI7rLAnZGUcQhs1QPI2eeY2SOeCAAAAAAAACAQAAAAAAAAQAAAAAAAAA==

> <PUBCHEM_IUPAC_OPENEYE_NAME>
4-[4-[(E)-(4-cyano-3-methyl-1-oxo-pyrido[1,2-a]benzimidazol-2-ylidene)methyl]-5-methyl-3-oxo-1H-pyrazol-2-yl]benzoic acid

> <PUBCHEM_IUPAC_CAS_NAME>
4-[4-[(E)-(4-cyano-3-methyl-1-oxo-2-pyrido[1,2-a]benzimidazolylidene)methyl]-5-methyl-3-oxo-1H-pyrazol-2-yl]benzoic acid

> <PUBCHEM_IUPAC_NAME_MARKUP>
4-[4-[(<I>E</I>)-(4-cyano-3-methyl-1-oxopyrido[1,2-a]benzimidazol-2-ylidene)methyl]-5-methyl-3-oxo-1<I>H</I>-pyrazol-2-yl]benzoic acid

> <PUBCHEM_IUPAC_NAME>
4-[4-[(E)-(4-cyano-3-methyl-1-oxopyrido[1,2-a]benzimidazol-2-ylidene)methyl]-5-methyl-3-oxo-1H-pyrazol-2-yl]benzoic acid

> <PUBCHEM_IUPAC_SYSTEMATIC_NAME>
4-[4-[(E)-(4-cyano-3-methyl-1-oxidanylidene-pyrido[1,2-a]benzimidazol-2-ylidene)methyl]-5-methyl-3-oxidanylidene-1H-pyrazol-2-yl]benzoic acid

> <PUBCHEM_IUPAC_TRADITIONAL_NAME>
4-[4-[(E)-(4-cyano-1-keto-3-methyl-pyrido[1,2-a]benzimidazol-2-ylidene)methyl]-5-keto-3-methyl-3-pyrazolin-1-yl]benzoic acid

> <PUBCHEM_IUPAC_INCHI>
InChI=1S/C25H17N5O4/c1-13-17(23(31)29-21-6-4-3-5-20(21)27-22(29)19(13)12-26)11-18-14(2)28-30(24(18)32)16-9-7-15(8-10-16)25(33)34/h3-11,28H,1-2H3,(H,33,34)/b17-11+

> <PUBCHEM_IUPAC_INCHIKEY>
AUZIEXMGCOCVPG-GZTJUZNOSA-N

> <PUBCHEM_XLOGP3_AA>
2.8

> <PUBCHEM_EXACT_MASS>
451.12805404

> <PUBCHEM_MOLECULAR_FORMULA>
C25H17N5O4

> <PUBCHEM_MOLECULAR_WEIGHT>
451.4

> <PUBCHEM_SMILES>
CC\1=C(C2=NC3=CC=CC=C3N2C(=O)/C1=C/C4=C(NN(C4=O)C5=CC=C(C=C5)C(=O)O)C)C#N

> <PUBCHEM_OPENEYE_CAN_SMILES>
CC1=C(C2=NC3=CC=CC=C3N2C(=O)C1=CC4=C(NN(C4=O)C5=CC=C(C=C5)C(=O)O)C)C#N

> <PUBCHEM_OPENEYE_ISO_SMILES>
CC\1=C(C2=NC3=CC=CC=C3N2C(=O)/C1=C/C4=C(NN(C4=O)C5=CC=C(C=C5)C(=O)O)C)C#N

> <PUBCHEM_CACTVS_TPSA>
128

> <PUBCHEM_MONOISOTOPIC_WEIGHT>
451.12805404

> <PUBCHEM_TOTAL_CHARGE>
0

> <PUBCHEM_HEAVY_ATOM_COUNT>
34

> <PUBCHEM_ATOM_DEF_STEREO_COUNT>
0

> <PUBCHEM_ATOM_UDEF_STEREO_COUNT>
0

> <PUBCHEM_BOND_DEF_STEREO_COUNT>
1

> <PUBCHEM_BOND_UDEF_STEREO_COUNT>
0

> <PUBCHEM_ISOTOPIC_ATOM_COUNT>
0

> <PUBCHEM_COMPONENT_COUNT>
1

> <PUBCHEM_CACTVS_TAUTO_COUNT>
-1

> <PUBCHEM_COORDINATE_TYPE>
1
5
255

> <PUBCHEM_BONDANNOTATIONS>
10  12  8
10  14  8
11  16  8
12  16  8
13  18  8
13  22  8
15  19  8
15  20  8
18  24  8
22  26  8
23  28  8
23  29  8
24  27  8
26  27  8
28  31  8
29  32  8
31  33  8
32  33  8
5  11  8
5  13  8
5  14  8
6  20  8
6  7  8
7  19  8
8  11  8
8  18  8

$$$$
