31420
  -OEChem-03202507302D

 28 30  0     0  0  0  0  0  0999 V2000
    4.6660   -2.0000    0.0000 O   0  0  0  0  0  0  0  0  0  0  0  0
    4.6660    2.0000    0.0000 O   0  0  0  0  0  0  0  0  0  0  0  0
    6.4144   -2.0346    0.0000 N   0  0  0  0  0  0  0  0  0  0  0  0
    6.4144    2.0346    0.0000 N   0  0  0  0  0  0  0  0  0  0  0  0
    5.5321   -0.5000    0.0000 C   0  0  0  0  0  0  0  0  0  0  0  0
    5.5321    0.5000    0.0000 C   0  0  0  0  0  0  0  0  0  0  0  0
    3.8000   -0.5000    0.0000 C   0  0  0  0  0  0  0  0  0  0  0  0
    3.8000    0.5000    0.0000 C   0  0  0  0  0  0  0  0  0  0  0  0
    4.6660   -1.0000    0.0000 C   0  0  0  0  0  0  0  0  0  0  0  0
    4.6660    1.0000    0.0000 C   0  0  0  0  0  0  0  0  0  0  0  0
    6.4260   -1.0347    0.0000 C   0  0  0  0  0  0  0  0  0  0  0  0
    6.4260    1.0347    0.0000 C   0  0  0  0  0  0  0  0  0  0  0  0
    7.3321   -0.5208    0.0000 C   0  0  0  0  0  0  0  0  0  0  0  0
    7.3321    0.5208    0.0000 C   0  0  0  0  0  0  0  0  0  0  0  0
    2.9061   -1.0347    0.0000 C   0  0  0  0  0  0  0  0  0  0  0  0
    2.9061    1.0347    0.0000 C   0  0  0  0  0  0  0  0  0  0  0  0
    2.0000   -0.5208    0.0000 C   0  0  0  0  0  0  0  0  0  0  0  0
    2.0000    0.5208    0.0000 C   0  0  0  0  0  0  0  0  0  0  0  0
    7.8678   -0.8329    0.0000 H   0  0  0  0  0  0  0  0  0  0  0  0
    7.8678    0.8329    0.0000 H   0  0  0  0  0  0  0  0  0  0  0  0
    2.9132   -1.6546    0.0000 H   0  0  0  0  0  0  0  0  0  0  0  0
    2.9132    1.6546    0.0000 H   0  0  0  0  0  0  0  0  0  0  0  0
    1.4643   -0.8329    0.0000 H   0  0  0  0  0  0  0  0  0  0  0  0
    1.4643    0.8329    0.0000 H   0  0  0  0  0  0  0  0  0  0  0  0
    6.9478   -2.3508    0.0000 H   0  0  0  0  0  0  0  0  0  0  0  0
    5.8740   -2.3384    0.0000 H   0  0  0  0  0  0  0  0  0  0  0  0
    6.9478    2.3508    0.0000 H   0  0  0  0  0  0  0  0  0  0  0  0
    5.8740    2.3384    0.0000 H   0  0  0  0  0  0  0  0  0  0  0  0
  1  9  2  0  0  0  0
  2 10  2  0  0  0  0
  3 11  1  0  0  0  0
  3 25  1  0  0  0  0
  3 26  1  0  0  0  0
  4 12  1  0  0  0  0
  4 27  1  0  0  0  0
  4 28  1  0  0  0  0
  5  6  1  0  0  0  0
  5  9  1  0  0  0  0
  5 11  2  0  0  0  0
  6 10  1  0  0  0  0
  6 12  2  0  0  0  0
  7  8  1  0  0  0  0
  7  9  1  0  0  0  0
  7 15  2  0  0  0  0
  8 10  1  0  0  0  0
  8 16  2  0  0  0  0
 11 13  1  0  0  0  0
 12 14  1  0  0  0  0
 13 14  2  0  0  0  0
 13 19  1  0  0  0  0
 14 20  1  0  0  0  0
 15 17  1  0  0  0  0
 15 21  1  0  0  0  0
 16 18  1  0  0  0  0
 16 22  1  0  0  0  0
 17 18  2  0  0  0  0
 17 23  1  0  0  0  0
 18 24  1  0  0  0  0
M  END
> <PUBCHEM_COMPOUND_CID>
31420

> <PUBCHEM_COMPOUND_CANONICALIZED>
1

> <PUBCHEM_CACTVS_COMPLEXITY>
346

> <PUBCHEM_CACTVS_HBOND_ACCEPTOR>
4

> <PUBCHEM_CACTVS_HBOND_DONOR>
2

> <PUBCHEM_CACTVS_ROTATABLE_BOND>
0

> <PUBCHEM_CACTVS_SUBSKEYS>
AAADccBzMAAAAAAAAAAAAAAAAAAAAAAAAAAwYMAAAAAAAADBQAAAHgAQAAAADAyBmAAwwIBAAACIAqRSQACCAAAkAgAIiAEAZMgIIDqAlZGAIYBgkAAIyccdiMCOgACAQAASAACAAQSAACQAAAAAAAAAAA==

> <PUBCHEM_IUPAC_OPENEYE_NAME>
1,4-diaminoanthracene-9,10-dione

> <PUBCHEM_IUPAC_CAS_NAME>
1,4-diaminoanthracene-9,10-dione

> <PUBCHEM_IUPAC_NAME_MARKUP>
1,4-diaminoanthracene-9,10-dione

> <PUBCHEM_IUPAC_NAME>
1,4-diaminoanthracene-9,10-dione

> <PUBCHEM_IUPAC_SYSTEMATIC_NAME>
1,4-bis(azanyl)anthracene-9,10-dione

> <PUBCHEM_IUPAC_TRADITIONAL_NAME>
1,4-diamino-9,10-anthraquinone

> <PUBCHEM_IUPAC_INCHI>
InChI=1S/C14H10N2O2/c15-9-5-6-10(16)12-11(9)13(17)7-3-1-2-4-8(7)14(12)18/h1-6H,15-16H2

> <PUBCHEM_IUPAC_INCHIKEY>
FBMQNRKSAWNXBT-UHFFFAOYSA-N

> <PUBCHEM_XLOGP3_AA>
2.6

> <PUBCHEM_EXACT_MASS>
238.074227566

> <PUBCHEM_MOLECULAR_FORMULA>
C14H10N2O2

> <PUBCHEM_MOLECULAR_WEIGHT>
238.24

> <PUBCHEM_SMILES>
C1=CC=C2C(=C1)C(=O)C3=C(C=CC(=C3C2=O)N)N

> <PUBCHEM_OPENEYE_CAN_SMILES>
C1=CC=C2C(=C1)C(=O)C3=C(C=CC(=C3C2=O)N)N

> <PUBCHEM_OPENEYE_ISO_SMILES>
C1=CC=C2C(=C1)C(=O)C3=C(C=CC(=C3C2=O)N)N

> <PUBCHEM_CACTVS_TPSA>
86.2

> <PUBCHEM_MONOISOTOPIC_WEIGHT>
238.074227566

> <PUBCHEM_TOTAL_CHARGE>
0

> <PUBCHEM_HEAVY_ATOM_COUNT>
18

> <PUBCHEM_ATOM_DEF_STEREO_COUNT>
0

> <PUBCHEM_ATOM_UDEF_STEREO_COUNT>
0

> <PUBCHEM_BOND_DEF_STEREO_COUNT>
0

> <PUBCHEM_BOND_UDEF_STEREO_COUNT>
0

> <PUBCHEM_ISOTOPIC_ATOM_COUNT>
0

> <PUBCHEM_COMPONENT_COUNT>
1

> <PUBCHEM_CACTVS_TAUTO_COUNT>
-1

> <PUBCHEM_COORDINATE_TYPE>
1
5
255

> <PUBCHEM_BONDANNOTATIONS>
11  13  8
12  14  8
13  14  8
15  17  8
16  18  8
17  18  8
5  11  8
5  6  8
6  12  8
7  15  8
7  8  8
8  16  8

$$$$
