66552478
  -OEChem-03202504352D

 71 76  0     0  0  0  0  0  0999 V2000
    8.5991    3.7081    0.0000 S   0  0  0  0  0  0  0  0  0  0  0  0
    5.1350   -2.2919    0.0000 N   0  0  0  0  0  0  0  0  0  0  0  0
    6.8671   -1.2919    0.0000 N   0  0  0  0  0  0  0  0  0  0  0  0
    2.5369   -3.7919    0.0000 N   0  0  0  0  0  0  0  0  0  0  0  0
   10.3475   -2.3265    0.0000 N   0  0  0  0  0  0  0  0  0  0  0  0
    8.5991   -1.2919    0.0000 N   0  0  0  0  0  0  0  0  0  0  0  0
    7.7331    0.2081    0.0000 N   0  0  0  0  0  0  0  0  0  0  0  0
   11.2651   -0.8127    0.0000 N   0  0  0  0  0  0  0  0  0  0  0  0
   10.3591    0.7428    0.0000 N   0  0  0  0  0  0  0  0  0  0  0  0
    8.5991    1.7081    0.0000 N   0  0  0  0  0  0  0  0  0  0  0  0
   11.1961   -3.8364    0.0000 C   0  0  0  0  0  0  0  0  0  0  0  0
   10.6862   -4.6966    0.0000 C   0  0  0  0  0  0  0  0  0  0  0  0
   11.6861   -4.7081    0.0000 C   0  0  0  0  0  0  0  0  0  0  0  0
    4.2690   -2.7919    0.0000 C   0  0  0  0  0  0  0  0  0  0  0  0
   11.2077   -2.8364    0.0000 C   0  0  0  0  0  0  0  0  0  0  0  0
    3.4030   -2.2919    0.0000 C   0  0  0  0  0  0  0  0  0  0  0  0
    4.2690   -3.7919    0.0000 C   0  0  0  0  0  0  0  0  0  0  0  0
    5.1350   -1.2919    0.0000 C   0  0  0  0  0  0  0  0  0  0  0  0
    6.0010   -2.7919    0.0000 C   0  0  0  0  0  0  0  0  0  0  0  0
    6.0010   -0.7919    0.0000 C   0  0  0  0  0  0  0  0  0  0  0  0
    6.8671   -2.2919    0.0000 C   0  0  0  0  0  0  0  0  0  0  0  0
    2.5369   -2.7919    0.0000 C   0  0  0  0  0  0  0  0  0  0  0  0
    3.4030   -4.2919    0.0000 C   0  0  0  0  0  0  0  0  0  0  0  0
    7.7331   -0.7919    0.0000 C   0  0  0  0  0  0  0  0  0  0  0  0
   10.3591   -1.3265    0.0000 C   0  0  0  0  0  0  0  0  0  0  0  0
    9.4651   -0.7919    0.0000 C   0  0  0  0  0  0  0  0  0  0  0  0
    9.4651    0.2081    0.0000 C   0  0  0  0  0  0  0  0  0  0  0  0
    8.5991    0.7081    0.0000 C   0  0  0  0  0  0  0  0  0  0  0  0
   11.2651    0.2289    0.0000 C   0  0  0  0  0  0  0  0  0  0  0  0
    7.7331    2.2081    0.0000 C   0  0  0  0  0  0  0  0  0  0  0  0
    7.7331    3.2081    0.0000 C   0  0  0  0  0  0  0  0  0  0  0  0
    6.8671    1.7081    0.0000 C   0  0  0  0  0  0  0  0  0  0  0  0
    6.8671    3.7081    0.0000 C   0  0  0  0  0  0  0  0  0  0  0  0
    6.0010    2.2081    0.0000 C   0  0  0  0  0  0  0  0  0  0  0  0
    6.0010    3.2081    0.0000 C   0  0  0  0  0  0  0  0  0  0  0  0
    8.5991    4.7081    0.0000 C   0  0  0  0  0  0  0  0  0  0  0  0
   11.7968   -3.6828    0.0000 H   0  0  0  0  0  0  0  0  0  0  0  0
   10.1060   -4.4778    0.0000 H   0  0  0  0  0  0  0  0  0  0  0  0
   10.5714   -5.3059    0.0000 H   0  0  0  0  0  0  0  0  0  0  0  0
   11.7867   -5.3199    0.0000 H   0  0  0  0  0  0  0  0  0  0  0  0
   12.2711   -4.5028    0.0000 H   0  0  0  0  0  0  0  0  0  0  0  0
    4.2690   -2.1719    0.0000 H   0  0  0  0  0  0  0  0  0  0  0  0
   11.8170   -2.9512    0.0000 H   0  0  0  0  0  0  0  0  0  0  0  0
   11.4265   -2.2563    0.0000 H   0  0  0  0  0  0  0  0  0  0  0  0
    3.8015   -1.8169    0.0000 H   0  0  0  0  0  0  0  0  0  0  0  0
    3.0044   -1.8169    0.0000 H   0  0  0  0  0  0  0  0  0  0  0  0
    4.4810   -4.3745    0.0000 H   0  0  0  0  0  0  0  0  0  0  0  0
    4.8796   -3.6842    0.0000 H   0  0  0  0  0  0  0  0  0  0  0  0
    4.9230   -0.7093    0.0000 H   0  0  0  0  0  0  0  0  0  0  0  0
    4.5244   -1.3995    0.0000 H   0  0  0  0  0  0  0  0  0  0  0  0
    5.6025   -3.2668    0.0000 H   0  0  0  0  0  0  0  0  0  0  0  0
    6.3996   -3.2668    0.0000 H   0  0  0  0  0  0  0  0  0  0  0  0
    6.3996   -0.3169    0.0000 H   0  0  0  0  0  0  0  0  0  0  0  0
    5.6025   -0.3169    0.0000 H   0  0  0  0  0  0  0  0  0  0  0  0
    7.0791   -2.8745    0.0000 H   0  0  0  0  0  0  0  0  0  0  0  0
    7.4776   -2.1842    0.0000 H   0  0  0  0  0  0  0  0  0  0  0  0
    2.3249   -2.2093    0.0000 H   0  0  0  0  0  0  0  0  0  0  0  0
    1.9264   -2.8995    0.0000 H   0  0  0  0  0  0  0  0  0  0  0  0
    3.0044   -4.7668    0.0000 H   0  0  0  0  0  0  0  0  0  0  0  0
    3.8015   -4.7668    0.0000 H   0  0  0  0  0  0  0  0  0  0  0  0
    2.0000   -4.1019    0.0000 H   0  0  0  0  0  0  0  0  0  0  0  0
    9.8070   -2.6302    0.0000 H   0  0  0  0  0  0  0  0  0  0  0  0
   11.8009    0.5410    0.0000 H   0  0  0  0  0  0  0  0  0  0  0  0
    9.1360    2.0181    0.0000 H   0  0  0  0  0  0  0  0  0  0  0  0
    6.8671    1.0881    0.0000 H   0  0  0  0  0  0  0  0  0  0  0  0
    6.8671    4.3281    0.0000 H   0  0  0  0  0  0  0  0  0  0  0  0
    5.4641    1.8981    0.0000 H   0  0  0  0  0  0  0  0  0  0  0  0
    5.4641    3.5181    0.0000 H   0  0  0  0  0  0  0  0  0  0  0  0
    9.2191    4.7081    0.0000 H   0  0  0  0  0  0  0  0  0  0  0  0
    8.5991    5.3281    0.0000 H   0  0  0  0  0  0  0  0  0  0  0  0
    7.9791    4.7081    0.0000 H   0  0  0  0  0  0  0  0  0  0  0  0
  1 31  1  0  0  0  0
  1 36  1  0  0  0  0
  2 14  1  0  0  0  0
  2 18  1  0  0  0  0
  2 19  1  0  0  0  0
  3 20  1  0  0  0  0
  3 21  1  0  0  0  0
  3 24  1  0  0  0  0
  4 22  1  0  0  0  0
  4 23  1  0  0  0  0
  4 61  1  0  0  0  0
  5 15  1  0  0  0  0
  5 25  1  0  0  0  0
  5 62  1  0  0  0  0
  6 24  2  0  0  0  0
  6 26  1  0  0  0  0
  7 24  1  0  0  0  0
  7 28  2  0  0  0  0
  8 25  2  0  0  0  0
  8 29  1  0  0  0  0
  9 27  1  0  0  0  0
  9 29  2  0  0  0  0
 10 28  1  0  0  0  0
 10 30  1  0  0  0  0
 10 64  1  0  0  0  0
 11 12  1  0  0  0  0
 11 13  1  0  0  0  0
 11 15  1  0  0  0  0
 11 37  1  0  0  0  0
 12 13  1  0  0  0  0
 12 38  1  0  0  0  0
 12 39  1  0  0  0  0
 13 40  1  0  0  0  0
 13 41  1  0  0  0  0
 14 16  1  0  0  0  0
 14 17  1  0  0  0  0
 14 42  1  0  0  0  0
 15 43  1  0  0  0  0
 15 44  1  0  0  0  0
 16 22  1  0  0  0  0
 16 45  1  0  0  0  0
 16 46  1  0  0  0  0
 17 23  1  0  0  0  0
 17 47  1  0  0  0  0
 17 48  1  0  0  0  0
 18 20  1  0  0  0  0
 18 49  1  0  0  0  0
 18 50  1  0  0  0  0
 19 21  1  0  0  0  0
 19 51  1  0  0  0  0
 19 52  1  0  0  0  0
 20 53  1  0  0  0  0
 20 54  1  0  0  0  0
 21 55  1  0  0  0  0
 21 56  1  0  0  0  0
 22 57  1  0  0  0  0
 22 58  1  0  0  0  0
 23 59  1  0  0  0  0
 23 60  1  0  0  0  0
 25 26  1  0  0  0  0
 26 27  2  0  0  0  0
 27 28  1  0  0  0  0
 29 63  1  0  0  0  0
 30 31  1  0  0  0  0
 30 32  2  0  0  0  0
 31 33  2  0  0  0  0
 32 34  1  0  0  0  0
 32 65  1  0  0  0  0
 33 35  1  0  0  0  0
 33 66  1  0  0  0  0
 34 35  2  0  0  0  0
 34 67  1  0  0  0  0
 35 68  1  0  0  0  0
 36 69  1  0  0  0  0
 36 70  1  0  0  0  0
 36 71  1  0  0  0  0
M  END
> <PUBCHEM_COMPOUND_CID>
66552478

> <PUBCHEM_COMPOUND_CANONICALIZED>
1

> <PUBCHEM_CACTVS_COMPLEXITY>
682

> <PUBCHEM_CACTVS_HBOND_ACCEPTOR>
10

> <PUBCHEM_CACTVS_HBOND_DONOR>
3

> <PUBCHEM_CACTVS_ROTATABLE_BOND>
8

> <PUBCHEM_CACTVS_SUBSKEYS>
AAADcfB7wABAAAAAAAAAAAAAGAAAAAAAAAA8WLFiAAAAAACx/AAAHAQQAAAADSjBVgS38bfIEAigASZjZACCgC0xGrAJ2LwodJiIaGLg2dGUJAhokALIyCcQAAAAAAAAAAAAAQAAAAAAAAACAAAAAAAAAA==

> <PUBCHEM_IUPAC_OPENEYE_NAME>
N8-(cyclopropylmethyl)-N4-(2-methylsulfanylphenyl)-2-[4-(4-piperidyl)piperazin-1-yl]pyrimido[5,4-d]pyrimidine-4,8-diamine

> <PUBCHEM_IUPAC_CAS_NAME>
N8-(cyclopropylmethyl)-N4-[2-(methylthio)phenyl]-2-[4-(4-piperidinyl)-1-piperazinyl]pyrimido[5,4-d]pyrimidine-4,8-diamine

> <PUBCHEM_IUPAC_NAME_MARKUP>
8-<I>N</I>-(cyclopropylmethyl)-4-<I>N</I>-(2-methylsulfanylphenyl)-2-(4-piperidin-4-ylpiperazin-1-yl)pyrimido[5,4-d]pyrimidine-4,8-diamine

> <PUBCHEM_IUPAC_NAME>
8-N-(cyclopropylmethyl)-4-N-(2-methylsulfanylphenyl)-2-(4-piperidin-4-ylpiperazin-1-yl)pyrimido[5,4-d]pyrimidine-4,8-diamine

> <PUBCHEM_IUPAC_SYSTEMATIC_NAME>
N8-(cyclopropylmethyl)-N4-(2-methylsulfanylphenyl)-2-(4-piperidin-4-ylpiperazin-1-yl)pyrimido[5,4-d]pyrimidine-4,8-diamine

> <PUBCHEM_IUPAC_TRADITIONAL_NAME>
cyclopropylmethyl-[4-[2-(methylthio)anilino]-2-[4-(4-piperidyl)piperazino]pyrimido[5,4-d]pyrimidin-8-yl]amine

> <PUBCHEM_IUPAC_INCHI>
InChI=1S/C26H35N9S/c1-36-21-5-3-2-4-20(21)31-25-22-23(24(30-17-29-22)28-16-18-6-7-18)32-26(33-25)35-14-12-34(13-15-35)19-8-10-27-11-9-19/h2-5,17-19,27H,6-16H2,1H3,(H,28,29,30)(H,31,32,33)

> <PUBCHEM_IUPAC_INCHIKEY>
QEMQWMRZJAAQSZ-UHFFFAOYSA-N

> <PUBCHEM_XLOGP3_AA>
3.8

> <PUBCHEM_EXACT_MASS>
505.27361333

> <PUBCHEM_MOLECULAR_FORMULA>
C26H35N9S

> <PUBCHEM_MOLECULAR_WEIGHT>
505.7

> <PUBCHEM_SMILES>
CSC1=CC=CC=C1NC2=NC(=NC3=C2N=CN=C3NCC4CC4)N5CCN(CC5)C6CCNCC6

> <PUBCHEM_OPENEYE_CAN_SMILES>
CSC1=CC=CC=C1NC2=NC(=NC3=C2N=CN=C3NCC4CC4)N5CCN(CC5)C6CCNCC6

> <PUBCHEM_OPENEYE_ISO_SMILES>
CSC1=CC=CC=C1NC2=NC(=NC3=C2N=CN=C3NCC4CC4)N5CCN(CC5)C6CCNCC6

> <PUBCHEM_CACTVS_TPSA>
119

> <PUBCHEM_MONOISOTOPIC_WEIGHT>
505.27361333

> <PUBCHEM_TOTAL_CHARGE>
0

> <PUBCHEM_HEAVY_ATOM_COUNT>
36

> <PUBCHEM_ATOM_DEF_STEREO_COUNT>
0

> <PUBCHEM_ATOM_UDEF_STEREO_COUNT>
0

> <PUBCHEM_BOND_DEF_STEREO_COUNT>
0

> <PUBCHEM_BOND_UDEF_STEREO_COUNT>
0

> <PUBCHEM_ISOTOPIC_ATOM_COUNT>
0

> <PUBCHEM_COMPONENT_COUNT>
1

> <PUBCHEM_CACTVS_TAUTO_COUNT>
-1

> <PUBCHEM_COORDINATE_TYPE>
1
5
255

> <PUBCHEM_BONDANNOTATIONS>
25  26  8
26  27  8
27  28  8
30  31  8
30  32  8
31  33  8
32  34  8
33  35  8
34  35  8
6  24  8
6  26  8
7  24  8
7  28  8
8  25  8
8  29  8
9  27  8
9  29  8

$$$$
