11396738
  -OEChem-03202507132D

 57 61  0     1  0  0  0  0  0999 V2000
   13.3320    1.6696    0.0000 F   0  0  0  0  0  0  0  0  0  0  0  0
    5.2423   -3.6407    0.0000 O   0  0  0  0  0  0  0  0  0  0  0  0
    4.5981   -0.2929    0.0000 O   0  0  0  0  0  0  0  0  0  0  0  0
    2.0000    3.2071    0.0000 O   0  0  0  0  0  0  0  0  0  0  0  0
    6.3301   -0.2929    0.0000 N   0  0  0  0  0  0  0  0  0  0  0  0
    5.4641    1.2071    0.0000 N   0  0  0  0  0  0  0  0  0  0  0  0
    8.0901   -0.3275    0.0000 N   0  0  0  0  0  0  0  0  0  0  0  0
    8.9962    1.2279    0.0000 N   0  0  0  0  0  0  0  0  0  0  0  0
    9.8602   -0.3170    0.0000 N   0  0  0  0  0  0  0  0  0  0  0  0
    6.3301   -1.2929    0.0000 C   0  0  1  0  0  0  0  0  0  0  0  0
    5.5211   -1.8807    0.0000 C   0  0  0  0  0  0  0  0  0  0  0  0
    7.1391   -1.8807    0.0000 C   0  0  0  0  0  0  0  0  0  0  0  0
    5.8301   -2.8317    0.0000 C   0  0  1  0  0  0  0  0  0  0  0  0
    6.8301   -2.8317    0.0000 C   0  0  0  0  0  0  0  0  0  0  0  0
    7.1962    0.2071    0.0000 C   0  0  0  0  0  0  0  0  0  0  0  0
    5.4641    0.2071    0.0000 C   0  0  0  0  0  0  0  0  0  0  0  0
    7.1962    1.2071    0.0000 C   0  0  0  0  0  0  0  0  0  0  0  0
    6.3301    1.7071    0.0000 C   0  0  0  0  0  0  0  0  0  0  0  0
    4.5981    1.7071    0.0000 C   0  0  0  0  0  0  0  0  0  0  0  0
    8.0901    1.7418    0.0000 C   0  0  0  0  0  0  0  0  0  0  0  0
    8.9962    0.1863    0.0000 C   0  0  0  0  0  0  0  0  0  0  0  0
    3.7320    1.2071    0.0000 C   0  0  0  0  0  0  0  0  0  0  0  0
    4.5981    2.7071    0.0000 C   0  0  0  0  0  0  0  0  0  0  0  0
    2.8660    1.7071    0.0000 C   0  0  0  0  0  0  0  0  0  0  0  0
    3.7320    3.2071    0.0000 C   0  0  0  0  0  0  0  0  0  0  0  0
    2.8660    2.7071    0.0000 C   0  0  0  0  0  0  0  0  0  0  0  0
   10.7282    0.1796    0.0000 C   0  0  0  0  0  0  0  0  0  0  0  0
   10.7321    1.1796    0.0000 C   0  0  0  0  0  0  0  0  0  0  0  0
   11.5923   -0.3237    0.0000 C   0  0  0  0  0  0  0  0  0  0  0  0
   11.6000    1.6763    0.0000 C   0  0  0  0  0  0  0  0  0  0  0  0
   12.4602    0.1730    0.0000 C   0  0  0  0  0  0  0  0  0  0  0  0
    2.0000    4.2071    0.0000 C   0  0  0  0  0  0  0  0  0  0  0  0
   12.4641    1.1730    0.0000 C   0  0  0  0  0  0  0  0  0  0  0  0
    6.8826   -1.0114    0.0000 H   0  0  0  0  0  0  0  0  0  0  0  0
    5.2111   -1.3437    0.0000 H   0  0  0  0  0  0  0  0  0  0  0  0
    4.9547   -2.1328    0.0000 H   0  0  0  0  0  0  0  0  0  0  0  0
    7.7055   -2.1328    0.0000 H   0  0  0  0  0  0  0  0  0  0  0  0
    7.4491   -1.3437    0.0000 H   0  0  0  0  0  0  0  0  0  0  0  0
    5.2178   -2.7347    0.0000 H   0  0  0  0  0  0  0  0  0  0  0  0
    6.7653   -3.4483    0.0000 H   0  0  0  0  0  0  0  0  0  0  0  0
    7.4366   -2.9606    0.0000 H   0  0  0  0  0  0  0  0  0  0  0  0
    5.4945   -4.2071    0.0000 H   0  0  0  0  0  0  0  0  0  0  0  0
    6.7287    2.1821    0.0000 H   0  0  0  0  0  0  0  0  0  0  0  0
    5.9316    2.1821    0.0000 H   0  0  0  0  0  0  0  0  0  0  0  0
    8.0829    2.3617    0.0000 H   0  0  0  0  0  0  0  0  0  0  0  0
    3.7320    0.5871    0.0000 H   0  0  0  0  0  0  0  0  0  0  0  0
    5.1350    3.0171    0.0000 H   0  0  0  0  0  0  0  0  0  0  0  0
    9.8579   -0.9370    0.0000 H   0  0  0  0  0  0  0  0  0  0  0  0
    2.3291    1.3971    0.0000 H   0  0  0  0  0  0  0  0  0  0  0  0
    3.7320    3.8271    0.0000 H   0  0  0  0  0  0  0  0  0  0  0  0
   10.1963    1.4917    0.0000 H   0  0  0  0  0  0  0  0  0  0  0  0
   11.5899   -0.9437    0.0000 H   0  0  0  0  0  0  0  0  0  0  0  0
   11.6024    2.2963    0.0000 H   0  0  0  0  0  0  0  0  0  0  0  0
   12.9960   -0.1391    0.0000 H   0  0  0  0  0  0  0  0  0  0  0  0
    2.6200    4.2071    0.0000 H   0  0  0  0  0  0  0  0  0  0  0  0
    2.0000    4.8271    0.0000 H   0  0  0  0  0  0  0  0  0  0  0  0
    1.3800    4.2071    0.0000 H   0  0  0  0  0  0  0  0  0  0  0  0
  1 33  1  0  0  0  0
 13  2  1  1  0  0  0
  2 42  1  0  0  0  0
  3 16  2  0  0  0  0
  4 26  1  0  0  0  0
  4 32  1  0  0  0  0
 10  5  1  6  0  0  0
  5 15  1  0  0  0  0
  5 16  1  0  0  0  0
  6 16  1  0  0  0  0
  6 18  1  0  0  0  0
  6 19  1  0  0  0  0
  7 15  2  0  0  0  0
  7 21  1  0  0  0  0
  8 20  1  0  0  0  0
  8 21  2  0  0  0  0
  9 21  1  0  0  0  0
  9 27  1  0  0  0  0
  9 48  1  0  0  0  0
 10 11  1  0  0  0  0
 10 12  1  0  0  0  0
 10 34  1  0  0  0  0
 11 13  1  0  0  0  0
 11 35  1  0  0  0  0
 11 36  1  0  0  0  0
 12 14  1  0  0  0  0
 12 37  1  0  0  0  0
 12 38  1  0  0  0  0
 13 14  1  0  0  0  0
 13 39  1  0  0  0  0
 14 40  1  0  0  0  0
 14 41  1  0  0  0  0
 15 17  1  0  0  0  0
 17 18  1  0  0  0  0
 17 20  2  0  0  0  0
 18 43  1  0  0  0  0
 18 44  1  0  0  0  0
 19 22  2  0  0  0  0
 19 23  1  0  0  0  0
 20 45  1  0  0  0  0
 22 24  1  0  0  0  0
 22 46  1  0  0  0  0
 23 25  2  0  0  0  0
 23 47  1  0  0  0  0
 24 26  2  0  0  0  0
 24 49  1  0  0  0  0
 25 26  1  0  0  0  0
 25 50  1  0  0  0  0
 27 28  2  0  0  0  0
 27 29  1  0  0  0  0
 28 30  1  0  0  0  0
 28 51  1  0  0  0  0
 29 31  2  0  0  0  0
 29 52  1  0  0  0  0
 30 33  2  0  0  0  0
 30 53  1  0  0  0  0
 31 33  1  0  0  0  0
 31 54  1  0  0  0  0
 32 55  1  0  0  0  0
 32 56  1  0  0  0  0
 32 57  1  0  0  0  0
M  END
> <PUBCHEM_COMPOUND_CID>
11396738

> <PUBCHEM_COMPOUND_CANONICALIZED>
1

> <PUBCHEM_CACTVS_COMPLEXITY>
670

> <PUBCHEM_CACTVS_HBOND_ACCEPTOR>
7

> <PUBCHEM_CACTVS_HBOND_DONOR>
2

> <PUBCHEM_CACTVS_ROTATABLE_BOND>
5

> <PUBCHEM_CACTVS_SUBSKEYS>
AAADceB7sQAAAAAAAAAAAAAAAAAAAYAAAAA8eIEAAAAAAACx0AAAHwAQCAAADDzhmg4/9pfIFgCoAjZndACCiCkxIqAJ2CAubJiMPqLE+duEdChu1xPI6CewQAAAAEAAAAAAAAAAgAAAAAAAAAEAAAAAAA==

> <PUBCHEM_IUPAC_OPENEYE_NAME>
7-(4-fluoroanilino)-1-[(1R,3R)-3-hydroxycyclopentyl]-3-(4-methoxyphenyl)-4H-pyrimido[4,5-d]pyrimidin-2-one

> <PUBCHEM_IUPAC_CAS_NAME>
7-(4-fluoroanilino)-1-[(1R,3R)-3-hydroxycyclopentyl]-3-(4-methoxyphenyl)-4H-pyrimido[4,5-d]pyrimidin-2-one

> <PUBCHEM_IUPAC_NAME_MARKUP>
7-(4-fluoroanilino)-1-[(1<I>R</I>,3<I>R</I>)-3-hydroxycyclopentyl]-3-(4-methoxyphenyl)-4<I>H</I>-pyrimido[4,5-d]pyrimidin-2-one

> <PUBCHEM_IUPAC_NAME>
7-(4-fluoroanilino)-1-[(1R,3R)-3-hydroxycyclopentyl]-3-(4-methoxyphenyl)-4H-pyrimido[4,5-d]pyrimidin-2-one

> <PUBCHEM_IUPAC_SYSTEMATIC_NAME>
7-[(4-fluorophenyl)amino]-3-(4-methoxyphenyl)-1-[(1R,3R)-3-oxidanylcyclopentyl]-4H-pyrimido[4,5-d]pyrimidin-2-one

> <PUBCHEM_IUPAC_TRADITIONAL_NAME>
7-(4-fluoroanilino)-1-[(1R,3R)-3-hydroxycyclopentyl]-3-(4-methoxyphenyl)-4H-pyrimido[4,5-d]pyrimidin-2-one

> <PUBCHEM_IUPAC_INCHI>
InChI=1S/C24H24FN5O3/c1-33-21-10-7-18(8-11-21)29-14-15-13-26-23(27-17-4-2-16(25)3-5-17)28-22(15)30(24(29)32)19-6-9-20(31)12-19/h2-5,7-8,10-11,13,19-20,31H,6,9,12,14H2,1H3,(H,26,27,28)/t19-,20-/m1/s1

> <PUBCHEM_IUPAC_INCHIKEY>
KXEMINRANVTICS-WOJBJXKFSA-N

> <PUBCHEM_XLOGP3_AA>
3.3

> <PUBCHEM_EXACT_MASS>
449.18631781

> <PUBCHEM_MOLECULAR_FORMULA>
C24H24FN5O3

> <PUBCHEM_MOLECULAR_WEIGHT>
449.5

> <PUBCHEM_SMILES>
COC1=CC=C(C=C1)N2CC3=CN=C(N=C3N(C2=O)[C@@H]4CC[C@H](C4)O)NC5=CC=C(C=C5)F

> <PUBCHEM_OPENEYE_CAN_SMILES>
COC1=CC=C(C=C1)N2CC3=CN=C(N=C3N(C2=O)C4CCC(C4)O)NC5=CC=C(C=C5)F

> <PUBCHEM_OPENEYE_ISO_SMILES>
COC1=CC=C(C=C1)N2CC3=CN=C(N=C3N(C2=O)[C@@H]4CC[C@H](C4)O)NC5=CC=C(C=C5)F

> <PUBCHEM_CACTVS_TPSA>
90.8

> <PUBCHEM_MONOISOTOPIC_WEIGHT>
449.18631781

> <PUBCHEM_TOTAL_CHARGE>
0

> <PUBCHEM_HEAVY_ATOM_COUNT>
33

> <PUBCHEM_ATOM_DEF_STEREO_COUNT>
2

> <PUBCHEM_ATOM_UDEF_STEREO_COUNT>
0

> <PUBCHEM_BOND_DEF_STEREO_COUNT>
0

> <PUBCHEM_BOND_UDEF_STEREO_COUNT>
0

> <PUBCHEM_ISOTOPIC_ATOM_COUNT>
0

> <PUBCHEM_COMPONENT_COUNT>
1

> <PUBCHEM_CACTVS_TAUTO_COUNT>
-1

> <PUBCHEM_COORDINATE_TYPE>
1
5
255

> <PUBCHEM_BONDANNOTATIONS>
15  17  8
17  20  8
19  22  8
19  23  8
13  2  5
22  24  8
23  25  8
24  26  8
25  26  8
27  28  8
27  29  8
28  30  8
29  31  8
30  33  8
31  33  8
10  5  6
7  15  8
7  21  8
8  20  8
8  21  8

$$$$
