11691173
  -OEChem-03202504382D

 57 59  0     1  0  0  0  0  0999 V2000
   11.1787   -3.5272    0.0000 Cl  0  0  0  0  0  0  0  0  0  0  0  0
    9.4584   -2.5072    0.0000 F   0  0  0  0  0  0  0  0  0  0  0  0
    3.4030   -1.9728    0.0000 O   0  0  0  0  0  0  0  0  0  0  0  0
    6.0010    2.5272    0.0000 O   0  0  0  0  0  0  0  0  0  0  0  0
    3.4030    2.0272    0.0000 O   0  0  0  0  0  0  0  0  0  0  0  0
    5.1350    1.0272    0.0000 N   0  0  3  0  0  0  0  0  0  0  0  0
    2.5369    0.5272    0.0000 N   0  0  0  0  0  0  0  0  0  0  0  0
    9.4931    2.5619    0.0000 N   0  0  0  0  0  0  0  0  0  0  0  0
    9.4815   -0.5074    0.0000 N   0  0  0  0  0  0  0  0  0  0  0  0
   10.3991    1.0064    0.0000 N   0  0  0  0  0  0  0  0  0  0  0  0
    4.2690    0.5272    0.0000 C   0  0  1  0  0  0  0  0  0  0  0  0
    6.0010    0.5272    0.0000 C   0  0  0  0  0  0  0  0  0  0  0  0
    4.2690   -0.4728    0.0000 C   0  0  0  0  0  0  0  0  0  0  0  0
    6.8671    1.0272    0.0000 C   0  0  0  0  0  0  0  0  0  0  0  0
    5.1350    2.0272    0.0000 C   0  0  0  0  0  0  0  0  0  0  0  0
    3.4030   -0.9728    0.0000 C   0  0  0  0  0  0  0  0  0  0  0  0
    3.4030    1.0272    0.0000 C   0  0  0  0  0  0  0  0  0  0  0  0
    7.7331    0.5272    0.0000 C   0  0  0  0  0  0  0  0  0  0  0  0
    6.8671    2.0272    0.0000 C   0  0  0  0  0  0  0  0  0  0  0  0
    8.5991    1.0272    0.0000 C   0  0  0  0  0  0  0  0  0  0  0  0
    8.5991    2.0272    0.0000 C   0  0  0  0  0  0  0  0  0  0  0  0
    7.7331    2.5272    0.0000 C   0  0  0  0  0  0  0  0  0  0  0  0
    9.4931    0.4926    0.0000 C   0  0  0  0  0  0  0  0  0  0  0  0
   10.3991    2.0480    0.0000 C   0  0  0  0  0  0  0  0  0  0  0  0
    2.5369   -2.4728    0.0000 C   0  0  0  0  0  0  0  0  0  0  0  0
   10.3417   -1.0174    0.0000 C   0  0  0  0  0  0  0  0  0  0  0  0
    6.0010    3.5272    0.0000 C   0  0  0  0  0  0  0  0  0  0  0  0
   10.3301   -2.0173    0.0000 C   0  0  0  0  0  0  0  0  0  0  0  0
   11.2134   -0.5274    0.0000 C   0  0  0  0  0  0  0  0  0  0  0  0
   11.1903   -2.5273    0.0000 C   0  0  0  0  0  0  0  0  0  0  0  0
   12.0736   -1.0374    0.0000 C   0  0  0  0  0  0  0  0  0  0  0  0
   12.0620   -2.0373    0.0000 C   0  0  0  0  0  0  0  0  0  0  0  0
    4.8059    0.2172    0.0000 H   0  0  0  0  0  0  0  0  0  0  0  0
    5.6025    0.0523    0.0000 H   0  0  0  0  0  0  0  0  0  0  0  0
    6.3996    0.0523    0.0000 H   0  0  0  0  0  0  0  0  0  0  0  0
    4.4810   -1.0554    0.0000 H   0  0  0  0  0  0  0  0  0  0  0  0
    4.8796   -0.3651    0.0000 H   0  0  0  0  0  0  0  0  0  0  0  0
    5.7550    2.0272    0.0000 H   0  0  0  0  0  0  0  0  0  0  0  0
    5.1350    2.6472    0.0000 H   0  0  0  0  0  0  0  0  0  0  0  0
    4.5150    2.0272    0.0000 H   0  0  0  0  0  0  0  0  0  0  0  0
    3.1909   -0.3902    0.0000 H   0  0  0  0  0  0  0  0  0  0  0  0
    2.7924   -1.0804    0.0000 H   0  0  0  0  0  0  0  0  0  0  0  0
    7.7331   -0.0928    0.0000 H   0  0  0  0  0  0  0  0  0  0  0  0
    7.7331    3.1472    0.0000 H   0  0  0  0  0  0  0  0  0  0  0  0
    2.0000    0.8372    0.0000 H   0  0  0  0  0  0  0  0  0  0  0  0
    2.5369   -0.0928    0.0000 H   0  0  0  0  0  0  0  0  0  0  0  0
    8.9410   -0.8112    0.0000 H   0  0  0  0  0  0  0  0  0  0  0  0
   10.9349    2.3601    0.0000 H   0  0  0  0  0  0  0  0  0  0  0  0
    2.2269   -1.9358    0.0000 H   0  0  0  0  0  0  0  0  0  0  0  0
    2.0000   -2.7828    0.0000 H   0  0  0  0  0  0  0  0  0  0  0  0
    2.8469   -3.0097    0.0000 H   0  0  0  0  0  0  0  0  0  0  0  0
    6.6210    3.5272    0.0000 H   0  0  0  0  0  0  0  0  0  0  0  0
    6.0010    4.1472    0.0000 H   0  0  0  0  0  0  0  0  0  0  0  0
    5.3810    3.5272    0.0000 H   0  0  0  0  0  0  0  0  0  0  0  0
   11.2206    0.0925    0.0000 H   0  0  0  0  0  0  0  0  0  0  0  0
   12.6141   -0.7336    0.0000 H   0  0  0  0  0  0  0  0  0  0  0  0
   12.5954   -2.3535    0.0000 H   0  0  0  0  0  0  0  0  0  0  0  0
  1 30  1  0  0  0  0
  2 28  1  0  0  0  0
  3 16  1  0  0  0  0
  3 25  1  0  0  0  0
  4 19  1  0  0  0  0
  4 27  1  0  0  0  0
  5 17  2  0  0  0  0
 11  6  1  1  0  0  0
  6 12  1  0  0  0  0
  6 15  1  0  0  0  0
  7 17  1  0  0  0  0
  7 45  1  0  0  0  0
  7 46  1  0  0  0  0
  8 21  1  0  0  0  0
  8 24  2  0  0  0  0
  9 23  1  0  0  0  0
  9 26  1  0  0  0  0
  9 47  1  0  0  0  0
 10 23  2  0  0  0  0
 10 24  1  0  0  0  0
 11 13  1  0  0  0  0
 11 17  1  0  0  0  0
 11 33  1  0  0  0  0
 12 14  1  0  0  0  0
 12 34  1  0  0  0  0
 12 35  1  0  0  0  0
 13 16  1  0  0  0  0
 13 36  1  0  0  0  0
 13 37  1  0  0  0  0
 14 18  2  0  0  0  0
 14 19  1  0  0  0  0
 15 38  1  0  0  0  0
 15 39  1  0  0  0  0
 15 40  1  0  0  0  0
 16 41  1  0  0  0  0
 16 42  1  0  0  0  0
 18 20  1  0  0  0  0
 18 43  1  0  0  0  0
 19 22  2  0  0  0  0
 20 21  2  0  0  0  0
 20 23  1  0  0  0  0
 21 22  1  0  0  0  0
 22 44  1  0  0  0  0
 24 48  1  0  0  0  0
 25 49  1  0  0  0  0
 25 50  1  0  0  0  0
 25 51  1  0  0  0  0
 26 28  2  0  0  0  0
 26 29  1  0  0  0  0
 27 52  1  0  0  0  0
 27 53  1  0  0  0  0
 27 54  1  0  0  0  0
 28 30  1  0  0  0  0
 29 31  2  0  0  0  0
 29 55  1  0  0  0  0
 30 32  2  0  0  0  0
 31 32  1  0  0  0  0
 31 56  1  0  0  0  0
 32 57  1  0  0  0  0
M  END
> <PUBCHEM_COMPOUND_CID>
11691173

> <PUBCHEM_COMPOUND_CANONICALIZED>
1

> <PUBCHEM_CACTVS_COMPLEXITY>
606

> <PUBCHEM_CACTVS_HBOND_ACCEPTOR>
8

> <PUBCHEM_CACTVS_HBOND_DONOR>
2

> <PUBCHEM_CACTVS_ROTATABLE_BOND>
10

> <PUBCHEM_CACTVS_SUBSKEYS>
AAADceB7sQAEAAAAAAAAAAAAAAAAAAAAAAA8YIAAAAAAAACx9AAAHwIQAAAADC7hni439vfIFACoAydzdACCiCkxJ6AJ2CG+bpiMbvLF+/uUNChu0BvI6Cey0GMOKAACAgIKAABQAAQEBBQAAAAAAAAAAA==

> <PUBCHEM_IUPAC_OPENEYE_NAME>
(2S)-2-[[4-(3-chloro-2-fluoro-anilino)-7-methoxy-quinazolin-6-yl]methyl-methyl-amino]-4-methoxy-butanamide

> <PUBCHEM_IUPAC_CAS_NAME>
(2S)-2-[[4-(3-chloro-2-fluoroanilino)-7-methoxy-6-quinazolinyl]methyl-methylamino]-4-methoxybutanamide

> <PUBCHEM_IUPAC_NAME_MARKUP>
(2<I>S</I>)-2-[[4-(3-chloro-2-fluoroanilino)-7-methoxyquinazolin-6-yl]methyl-methylamino]-4-methoxybutanamide

> <PUBCHEM_IUPAC_NAME>
(2S)-2-[[4-(3-chloro-2-fluoroanilino)-7-methoxyquinazolin-6-yl]methyl-methylamino]-4-methoxybutanamide

> <PUBCHEM_IUPAC_SYSTEMATIC_NAME>
(2S)-2-[[4-[(3-chloranyl-2-fluoranyl-phenyl)amino]-7-methoxy-quinazolin-6-yl]methyl-methyl-amino]-4-methoxy-butanamide

> <PUBCHEM_IUPAC_TRADITIONAL_NAME>
(2S)-2-[[4-(3-chloro-2-fluoro-anilino)-7-methoxy-quinazolin-6-yl]methyl-methyl-amino]-4-methoxy-butyramide

> <PUBCHEM_IUPAC_INCHI>
InChI=1S/C22H25ClFN5O3/c1-29(18(21(25)30)7-8-31-2)11-13-9-14-17(10-19(13)32-3)26-12-27-22(14)28-16-6-4-5-15(23)20(16)24/h4-6,9-10,12,18H,7-8,11H2,1-3H3,(H2,25,30)(H,26,27,28)/t18-/m0/s1

> <PUBCHEM_IUPAC_INCHIKEY>
KBHNVEWVXSQNJH-SFHVURJKSA-N

> <PUBCHEM_XLOGP3_AA>
3.1

> <PUBCHEM_EXACT_MASS>
461.1629955

> <PUBCHEM_MOLECULAR_FORMULA>
C22H25ClFN5O3

> <PUBCHEM_MOLECULAR_WEIGHT>
461.9

> <PUBCHEM_SMILES>
CN(CC1=CC2=C(C=C1OC)N=CN=C2NC3=C(C(=CC=C3)Cl)F)[C@@H](CCOC)C(=O)N

> <PUBCHEM_OPENEYE_CAN_SMILES>
CN(CC1=CC2=C(C=C1OC)N=CN=C2NC3=C(C(=CC=C3)Cl)F)C(CCOC)C(=O)N

> <PUBCHEM_OPENEYE_ISO_SMILES>
CN(CC1=CC2=C(C=C1OC)N=CN=C2NC3=C(C(=CC=C3)Cl)F)[C@@H](CCOC)C(=O)N

> <PUBCHEM_CACTVS_TPSA>
103

> <PUBCHEM_MONOISOTOPIC_WEIGHT>
461.1629955

> <PUBCHEM_TOTAL_CHARGE>
0

> <PUBCHEM_HEAVY_ATOM_COUNT>
32

> <PUBCHEM_ATOM_DEF_STEREO_COUNT>
1

> <PUBCHEM_ATOM_UDEF_STEREO_COUNT>
0

> <PUBCHEM_BOND_DEF_STEREO_COUNT>
0

> <PUBCHEM_BOND_UDEF_STEREO_COUNT>
0

> <PUBCHEM_ISOTOPIC_ATOM_COUNT>
0

> <PUBCHEM_COMPONENT_COUNT>
1

> <PUBCHEM_CACTVS_TAUTO_COUNT>
-1

> <PUBCHEM_COORDINATE_TYPE>
1
5
255

> <PUBCHEM_BONDANNOTATIONS>
10  23  8
10  24  8
14  18  8
14  19  8
18  20  8
19  22  8
20  21  8
20  23  8
21  22  8
26  28  8
26  29  8
28  30  8
29  31  8
30  32  8
31  32  8
11  6  5
8  21  8
8  24  8

$$$$
