44460512
  -OEChem-03202505242D

 94101  0     1  0  0  0  0  0999 V2000
    7.7051    0.1801    0.0000 O   0  0  0  0  0  0  0  0  0  0  0  0
   10.6607    0.1053    0.0000 O   0  0  0  0  0  0  0  0  0  0  0  0
   10.3552    1.7286    0.0000 O   0  0  0  0  0  0  0  0  0  0  0  0
    8.6232    2.7285    0.0000 O   0  0  0  0  0  0  0  0  0  0  0  0
    6.8530    1.7317    0.0000 O   0  0  0  0  0  0  0  0  0  0  0  0
    7.4732   -3.0182    0.0000 O   0  0  0  0  0  0  0  0  0  0  0  0
   12.3962   -0.1251    0.0000 O   0  0  0  0  0  0  0  0  0  0  0  0
   11.7213    0.3626    0.0000 O   0  0  0  0  0  0  0  0  0  0  0  0
    9.4892    4.2286    0.0000 O   0  0  0  0  0  0  0  0  0  0  0  0
    5.9697    0.2418    0.0000 O   0  0  0  0  0  0  0  0  0  0  0  0
   11.5650   -5.2299    0.0000 O   0  0  0  0  0  0  0  0  0  0  0  0
   12.3374   -4.7760    0.0000 O   0  0  0  0  0  0  0  0  0  0  0  0
    8.3706   -6.1845    0.0000 O   0  0  0  0  0  0  0  0  0  0  0  0
   10.5720   -6.4133    0.0000 O   0  0  0  0  0  0  0  0  0  0  0  0
   12.9696    4.2631    0.0000 O   0  0  0  0  0  0  0  0  0  0  0  0
   12.3393    5.1490    0.0000 O   0  0  0  0  0  0  0  0  0  0  0  0
   14.7257   -2.4497    0.0000 O   0  0  0  0  0  0  0  0  0  0  0  0
   13.8545   -4.4843    0.0000 O   0  0  0  0  0  0  0  0  0  0  0  0
   14.7514    1.2044    0.0000 O   0  0  0  0  0  0  0  0  0  0  0  0
   14.7514    3.2527    0.0000 O   0  0  0  0  0  0  0  0  0  0  0  0
    7.9583    5.2973    0.0000 O   0  0  0  0  0  0  0  0  0  0  0  0
   10.1951    6.5887    0.0000 O   0  0  0  0  0  0  0  0  0  0  0  0
    2.5174    1.2818    0.0000 O   0  0  0  0  0  0  0  0  0  0  0  0
    4.2840    4.2616    0.0000 O   0  0  0  0  0  0  0  0  0  0  0  0
    2.5405    3.2816    0.0000 O   0  0  0  0  0  0  0  0  0  0  0  0
    9.5052    0.1870    0.0000 C   0  0  3  0  0  0  0  0  0  0  0  0
    9.4892    1.2286    0.0000 C   0  0  3  0  0  0  0  0  0  0  0  0
    8.6072   -0.3407    0.0000 C   0  0  3  0  0  0  0  0  0  0  0  0
    8.6232    1.7286    0.0000 C   0  0  3  0  0  0  0  0  0  0  0  0
    7.7132    1.2217    0.0000 C   0  0  2  0  0  0  0  0  0  0  0  0
    8.1164   -1.3900    0.0000 C   0  0  0  0  0  0  0  0  0  0  0  0
    8.3436   -2.5258    0.0000 C   0  0  0  0  0  0  0  0  0  0  0  0
    9.2002   -3.3056    0.0000 C   0  0  0  0  0  0  0  0  0  0  0  0
   11.5425   -0.6459    0.0000 C   0  0  0  0  0  0  0  0  0  0  0  0
   11.2212    1.2286    0.0000 C   0  0  0  0  0  0  0  0  0  0  0  0
    9.4892    3.2285    0.0000 C   0  0  0  0  0  0  0  0  0  0  0  0
   10.3523   -3.4254    0.0000 C   0  0  0  0  0  0  0  0  0  0  0  0
   11.8070   -1.7737    0.0000 C   0  0  0  0  0  0  0  0  0  0  0  0
   11.3510   -2.8385    0.0000 C   0  0  0  0  0  0  0  0  0  0  0  0
   12.0873    1.7286    0.0000 C   0  0  0  0  0  0  0  0  0  0  0  0
   10.3552    2.7285    0.0000 C   0  0  0  0  0  0  0  0  0  0  0  0
    5.9812    1.2417    0.0000 C   0  0  0  0  0  0  0  0  0  0  0  0
   12.0873    2.7285    0.0000 C   0  0  0  0  0  0  0  0  0  0  0  0
   11.2212    3.2285    0.0000 C   0  0  0  0  0  0  0  0  0  0  0  0
    8.4771   -4.2716    0.0000 C   0  0  0  0  0  0  0  0  0  0  0  0
   10.8613   -4.5194    0.0000 C   0  0  0  0  0  0  0  0  0  0  0  0
   13.0027   -1.6120    0.0000 C   0  0  0  0  0  0  0  0  0  0  0  0
   12.0591   -3.8155    0.0000 C   0  0  0  0  0  0  0  0  0  0  0  0
   12.9812    1.1939    0.0000 C   0  0  0  0  0  0  0  0  0  0  0  0
    8.9606   -5.3770    0.0000 C   0  0  0  0  0  0  0  0  0  0  0  0
    5.1210    1.7517    0.0000 C   0  0  0  0  0  0  0  0  0  0  0  0
    8.9439    3.3057    0.0000 C   0  0  0  0  0  0  0  0  0  0  0  0
   10.1607   -5.5018    0.0000 C   0  0  0  0  0  0  0  0  0  0  0  0
   12.9812    3.2632    0.0000 C   0  0  0  0  0  0  0  0  0  0  0  0
   11.4271    4.7393    0.0000 C   0  0  0  0  0  0  0  0  0  0  0  0
   13.7332   -2.5723    0.0000 C   0  0  0  0  0  0  0  0  0  0  0  0
   13.2583   -3.6815    0.0000 C   0  0  0  0  0  0  0  0  0  0  0  0
   13.8873    1.7077    0.0000 C   0  0  0  0  0  0  0  0  0  0  0  0
   13.8873    2.7494    0.0000 C   0  0  0  0  0  0  0  0  0  0  0  0
    8.8407    4.8269    0.0000 C   0  0  0  0  0  0  0  0  0  0  0  0
   10.1612    5.5893    0.0000 C   0  0  0  0  0  0  0  0  0  0  0  0
    5.1326    2.7516    0.0000 C   0  0  0  0  0  0  0  0  0  0  0  0
    4.2493    1.2618    0.0000 C   0  0  0  0  0  0  0  0  0  0  0  0
    3.3891    1.7717    0.0000 C   0  0  0  0  0  0  0  0  0  0  0  0
    4.2724    3.2616    0.0000 C   0  0  0  0  0  0  0  0  0  0  0  0
    3.4007    2.7717    0.0000 C   0  0  0  0  0  0  0  0  0  0  0  0
    9.9556    0.6132    0.0000 H   0  0  0  0  0  0  0  0  0  0  0  0
   10.0285    0.9227    0.0000 H   0  0  0  0  0  0  0  0  0  0  0  0
    8.0158   -0.5268    0.0000 H   0  0  0  0  0  0  0  0  0  0  0  0
    8.0886    2.0427    0.0000 H   0  0  0  0  0  0  0  0  0  0  0  0
    7.1733    0.9169    0.0000 H   0  0  0  0  0  0  0  0  0  0  0  0
    7.6626   -0.9676    0.0000 H   0  0  0  0  0  0  0  0  0  0  0  0
    7.5751   -1.6923    0.0000 H   0  0  0  0  0  0  0  0  0  0  0  0
    7.8612   -4.2003    0.0000 H   0  0  0  0  0  0  0  0  0  0  0  0
   13.2401   -1.0392    0.0000 H   0  0  0  0  0  0  0  0  0  0  0  0
   12.9740    0.5739    0.0000 H   0  0  0  0  0  0  0  0  0  0  0  0
    8.4412    2.9428    0.0000 H   0  0  0  0  0  0  0  0  0  0  0  0
    5.6731    3.0554    0.0000 H   0  0  0  0  0  0  0  0  0  0  0  0
    4.2421    0.6418    0.0000 H   0  0  0  0  0  0  0  0  0  0  0  0
   11.4017   -5.8280    0.0000 H   0  0  0  0  0  0  0  0  0  0  0  0
   12.9395   -4.9242    0.0000 H   0  0  0  0  0  0  0  0  0  0  0  0
    7.7541   -6.1180    0.0000 H   0  0  0  0  0  0  0  0  0  0  0  0
   10.2100   -6.9167    0.0000 H   0  0  0  0  0  0  0  0  0  0  0  0
   13.5030    4.5793    0.0000 H   0  0  0  0  0  0  0  0  0  0  0  0
   12.4022    5.7658    0.0000 H   0  0  0  0  0  0  0  0  0  0  0  0
   14.9675   -1.8788    0.0000 H   0  0  0  0  0  0  0  0  0  0  0  0
   14.4704   -4.4130    0.0000 H   0  0  0  0  0  0  0  0  0  0  0  0
   15.2895    1.5123    0.0000 H   0  0  0  0  0  0  0  0  0  0  0  0
   15.2895    2.9448    0.0000 H   0  0  0  0  0  0  0  0  0  0  0  0
    7.9373    5.9170    0.0000 H   0  0  0  0  0  0  0  0  0  0  0  0
    9.6689    6.9167    0.0000 H   0  0  0  0  0  0  0  0  0  0  0  0
    2.5102    0.6618    0.0000 H   0  0  0  0  0  0  0  0  0  0  0  0
    3.7507    4.5777    0.0000 H   0  0  0  0  0  0  0  0  0  0  0  0
    2.0000    2.9779    0.0000 H   0  0  0  0  0  0  0  0  0  0  0  0
  1 28  1  0  0  0  0
  1 30  1  0  0  0  0
  2 26  1  0  0  0  0
  2 34  1  0  0  0  0
  3 27  1  0  0  0  0
  3 35  1  0  0  0  0
  4 29  1  0  0  0  0
  4 36  1  0  0  0  0
 30  5  1  6  0  0  0
  5 42  1  0  0  0  0
  6 32  2  0  0  0  0
  7 34  2  0  0  0  0
  8 35  2  0  0  0  0
  9 36  2  0  0  0  0
 10 42  2  0  0  0  0
 11 46  1  0  0  0  0
 11 80  1  0  0  0  0
 12 48  1  0  0  0  0
 12 81  1  0  0  0  0
 13 50  1  0  0  0  0
 13 82  1  0  0  0  0
 14 53  1  0  0  0  0
 14 83  1  0  0  0  0
 15 54  1  0  0  0  0
 15 84  1  0  0  0  0
 16 55  1  0  0  0  0
 16 85  1  0  0  0  0
 17 56  1  0  0  0  0
 17 86  1  0  0  0  0
 18 57  1  0  0  0  0
 18 87  1  0  0  0  0
 19 58  1  0  0  0  0
 19 88  1  0  0  0  0
 20 59  1  0  0  0  0
 20 89  1  0  0  0  0
 21 60  1  0  0  0  0
 21 90  1  0  0  0  0
 22 61  1  0  0  0  0
 22 91  1  0  0  0  0
 23 64  1  0  0  0  0
 23 92  1  0  0  0  0
 24 65  1  0  0  0  0
 24 93  1  0  0  0  0
 25 66  1  0  0  0  0
 25 94  1  0  0  0  0
 26 27  1  0  0  0  0
 26 28  1  0  0  0  0
 26 67  1  0  0  0  0
 27 29  1  0  0  0  0
 27 68  1  0  0  0  0
 28 31  1  0  0  0  0
 28 69  1  0  0  0  0
 29 30  1  0  0  0  0
 29 70  1  0  0  0  0
 30 71  1  0  0  0  0
 31 32  1  0  0  0  0
 31 72  1  0  0  0  0
 31 73  1  0  0  0  0
 32 33  1  0  0  0  0
 33 37  1  0  0  0  0
 33 45  2  0  0  0  0
 34 38  1  0  0  0  0
 35 40  1  0  0  0  0
 36 41  1  0  0  0  0
 37 39  1  0  0  0  0
 37 46  2  0  0  0  0
 38 39  1  0  0  0  0
 38 47  2  0  0  0  0
 39 48  2  0  0  0  0
 40 43  1  0  0  0  0
 40 49  2  0  0  0  0
 41 44  1  0  0  0  0
 41 52  2  0  0  0  0
 42 51  1  0  0  0  0
 43 44  1  0  0  0  0
 43 54  2  0  0  0  0
 44 55  2  0  0  0  0
 45 50  1  0  0  0  0
 45 74  1  0  0  0  0
 46 53  1  0  0  0  0
 47 56  1  0  0  0  0
 47 75  1  0  0  0  0
 48 57  1  0  0  0  0
 49 58  1  0  0  0  0
 49 76  1  0  0  0  0
 50 53  2  0  0  0  0
 51 62  2  0  0  0  0
 51 63  1  0  0  0  0
 52 60  1  0  0  0  0
 52 77  1  0  0  0  0
 54 59  1  0  0  0  0
 55 61  1  0  0  0  0
 56 57  2  0  0  0  0
 58 59  2  0  0  0  0
 60 61  2  0  0  0  0
 62 65  1  0  0  0  0
 62 78  1  0  0  0  0
 63 64  2  0  0  0  0
 63 79  1  0  0  0  0
 64 66  1  0  0  0  0
 65 66  2  0  0  0  0
M  END
> <PUBCHEM_COMPOUND_CID>
44460512

> <PUBCHEM_COMPOUND_CANONICALIZED>
1

> <PUBCHEM_CACTVS_COMPLEXITY>
1840

> <PUBCHEM_CACTVS_HBOND_ACCEPTOR>
25

> <PUBCHEM_CACTVS_HBOND_DONOR>
15

> <PUBCHEM_CACTVS_ROTATABLE_BOND>
3

> <PUBCHEM_CACTVS_SUBSKEYS>
AAADceB8PgAAAAAAAAAAAAAAAAAAAAAAAAA0YMGDAAAAAACRVAAAGgAACAAADBSwmAMwDoAABgCIAqDSCAACAAAkIAAAiAEGiMgZJzaCNRqicQEl4BUPuYfK7PzOoAABCAAYQABAAAIQADCAAAAAAAAAAA==

> <PUBCHEM_IUPAC_OPENEYE_NAME>
[(20R)-7,8,9,12,13,14,27,28,29,32,33,34-dodecahydroxy-4,17,24,37-tetraoxo-3,18,21,38-tetraoxaheptacyclo[20.16.0.02,19.05,10.011,16.025,30.031,36]octatriaconta-5,7,9,11,13,15,25,27,29,31,33,35-dodecaen-20-yl] 3,4,5-trihydroxybenzoate

> <PUBCHEM_IUPAC_CAS_NAME>
3,4,5-trihydroxybenzoic acid [(20R)-7,8,9,12,13,14,27,28,29,32,33,34-dodecahydroxy-4,17,24,37-tetraoxo-3,18,21,38-tetraoxaheptacyclo[20.16.0.02,19.05,10.011,16.025,30.031,36]octatriaconta-5,7,9,11,13,15,25,27,29,31,33,35-dodecaen-20-yl] ester

> <PUBCHEM_IUPAC_NAME_MARKUP>
[(20<I>R</I>)-7,8,9,12,13,14,27,28,29,32,33,34-dodecahydroxy-4,17,24,37-tetraoxo-3,18,21,38-tetraoxaheptacyclo[20.16.0.0<SUP>2,19</SUP>.0<SUP>5,10</SUP>.0<SUP>11,16</SUP>.0<SUP>25,30</SUP>.0<SUP>31,36</SUP>]octatriaconta-5,7,9,11,13,15,25,27,29,31,33,35-dodecaen-20-yl] 3,4,5-trihydroxybenzoate

> <PUBCHEM_IUPAC_NAME>
[(20R)-7,8,9,12,13,14,27,28,29,32,33,34-dodecahydroxy-4,17,24,37-tetraoxo-3,18,21,38-tetraoxaheptacyclo[20.16.0.02,19.05,10.011,16.025,30.031,36]octatriaconta-5,7,9,11,13,15,25,27,29,31,33,35-dodecaen-20-yl] 3,4,5-trihydroxybenzoate

> <PUBCHEM_IUPAC_SYSTEMATIC_NAME>
[(20R)-7,8,9,12,13,14,27,28,29,32,33,34-dodecakis(oxidanyl)-4,17,24,37-tetrakis(oxidanylidene)-3,18,21,38-tetraoxaheptacyclo[20.16.0.02,19.05,10.011,16.025,30.031,36]octatriaconta-5,7,9,11,13,15,25,27,29,31,33,35-dodecaen-20-yl] 3,4,5-tris(oxidanyl)benzoate

> <PUBCHEM_IUPAC_TRADITIONAL_NAME>
3,4,5-trihydroxybenzoic acid [(20R)-7,8,9,12,13,14,27,28,29,32,33,34-dodecahydroxy-4,17,24,37-tetraketo-3,18,21,38-tetraoxaheptacyclo[20.16.0.02,19.05,10.011,16.025,30.031,36]octatriaconta-5,7,9,11,13,15,25,27,29,31,33,35-dodecaen-20-yl] ester

> <PUBCHEM_IUPAC_INCHI>
InChI=1S/C41H28O25/c42-13-7-20-34(63-38(59)10-4-17(46)27(51)31(55)22(10)21-9(13)3-16(45)26(50)30(21)54)35-36(41(62-20)66-37(58)8-1-14(43)25(49)15(44)2-8)65-40(61)12-6-19(48)29(53)33(57)24(12)23-11(39(60)64-35)5-18(47)28(52)32(23)56/h1-6,20,34-36,41,43-57H,7H2/t20?,34?,35?,36?,41-/m1/s1

> <PUBCHEM_IUPAC_INCHIKEY>
NGWLTVMCWYZLRE-UEWBIVMYSA-N

> <PUBCHEM_XLOGP3_AA>
2

> <PUBCHEM_EXACT_MASS>
920.09196637

> <PUBCHEM_MOLECULAR_FORMULA>
C41H28O25

> <PUBCHEM_MOLECULAR_WEIGHT>
920.6

> <PUBCHEM_SMILES>
C1C2C(C3C([C@H](O2)OC(=O)C4=CC(=C(C(=C4)O)O)O)OC(=O)C5=CC(=C(C(=C5C6=C(C(=C(C=C6C(=O)O3)O)O)O)O)O)O)OC(=O)C7=CC(=C(C(=C7C8=C(C(=C(C=C8C1=O)O)O)O)O)O)O

> <PUBCHEM_OPENEYE_CAN_SMILES>
C1C2C(C3C(C(O2)OC(=O)C4=CC(=C(C(=C4)O)O)O)OC(=O)C5=CC(=C(C(=C5C6=C(C(=C(C=C6C(=O)O3)O)O)O)O)O)O)OC(=O)C7=CC(=C(C(=C7C8=C(C(=C(C=C8C1=O)O)O)O)O)O)O

> <PUBCHEM_OPENEYE_ISO_SMILES>
C1C2C(C3C([C@H](O2)OC(=O)C4=CC(=C(C(=C4)O)O)O)OC(=O)C5=CC(=C(C(=C5C6=C(C(=C(C=C6C(=O)O3)O)O)O)O)O)O)OC(=O)C7=CC(=C(C(=C7C8=C(C(=C(C=C8C1=O)O)O)O)O)O)O

> <PUBCHEM_CACTVS_TPSA>
435

> <PUBCHEM_MONOISOTOPIC_WEIGHT>
920.09196637

> <PUBCHEM_TOTAL_CHARGE>
0

> <PUBCHEM_HEAVY_ATOM_COUNT>
66

> <PUBCHEM_ATOM_DEF_STEREO_COUNT>
1

> <PUBCHEM_ATOM_UDEF_STEREO_COUNT>
4

> <PUBCHEM_BOND_DEF_STEREO_COUNT>
0

> <PUBCHEM_BOND_UDEF_STEREO_COUNT>
0

> <PUBCHEM_ISOTOPIC_ATOM_COUNT>
0

> <PUBCHEM_COMPONENT_COUNT>
1

> <PUBCHEM_CACTVS_TAUTO_COUNT>
-1

> <PUBCHEM_COORDINATE_TYPE>
1
5
255

> <PUBCHEM_BONDANNOTATIONS>
26  2  3
28  31  3
27  3  3
33  37  8
33  45  8
37  46  8
38  39  8
38  47  8
39  48  8
29  4  3
40  43  8
40  49  8
41  44  8
41  52  8
43  54  8
44  55  8
45  50  8
46  53  8
47  56  8
48  57  8
49  58  8
30  5  6
50  53  8
51  62  8
51  63  8
52  60  8
54  59  8
55  61  8
56  57  8
58  59  8
60  61  8
62  65  8
63  64  8
64  66  8
65  66  8

$$$$
