49830963
  -OEChem-03202501402D

 33 35  0     0  0  0  0  0  0999 V2000
    2.0000    0.7525    0.0000 S   0  0  0  0  0  0  0  0  0  0  0  0
   11.4448   -0.0497    0.0000 O   0  0  0  0  0  0  0  0  0  0  0  0
    8.8448    0.4403    0.0000 N   0  0  0  0  0  0  0  0  0  0  0  0
    7.9808   -1.1047    0.0000 N   0  0  0  0  0  0  0  0  0  0  0  0
    6.1808   -0.0839    0.0000 C   0  0  0  0  0  0  0  0  0  0  0  0
    6.1808   -1.0839    0.0000 C   0  0  0  0  0  0  0  0  0  0  0  0
    4.4487   -0.0839    0.0000 C   0  0  0  0  0  0  0  0  0  0  0  0
    5.3147    0.4161    0.0000 C   0  0  0  0  0  0  0  0  0  0  0  0
    7.0747    0.4508    0.0000 C   0  0  0  0  0  0  0  0  0  0  0  0
    7.9808   -0.0631    0.0000 C   0  0  0  0  0  0  0  0  0  0  0  0
    5.3147   -1.5839    0.0000 C   0  0  0  0  0  0  0  0  0  0  0  0
    4.4487   -1.0839    0.0000 C   0  0  0  0  0  0  0  0  0  0  0  0
    3.5827    0.4161    0.0000 C   0  0  0  0  0  0  0  0  0  0  0  0
    7.0747   -1.6186    0.0000 C   0  0  0  0  0  0  0  0  0  0  0  0
    9.7128   -0.0564    0.0000 C   0  0  0  0  0  0  0  0  0  0  0  0
    3.4782    1.4106    0.0000 C   0  0  0  0  0  0  0  0  0  0  0  0
    2.6691    0.0094    0.0000 C   0  0  0  0  0  0  0  0  0  0  0  0
   10.5769    0.4469    0.0000 C   0  0  0  0  0  0  0  0  0  0  0  0
    2.5000    1.6186    0.0000 C   0  0  0  0  0  0  0  0  0  0  0  0
    5.3147    1.0361    0.0000 H   0  0  0  0  0  0  0  0  0  0  0  0
    7.0675    1.0707    0.0000 H   0  0  0  0  0  0  0  0  0  0  0  0
    5.3147   -2.2039    0.0000 H   0  0  0  0  0  0  0  0  0  0  0  0
    3.9118   -1.3939    0.0000 H   0  0  0  0  0  0  0  0  0  0  0  0
    7.0675   -2.2385    0.0000 H   0  0  0  0  0  0  0  0  0  0  0  0
    8.8425    1.0603    0.0000 H   0  0  0  0  0  0  0  0  0  0  0  0
    9.3161   -0.5329    0.0000 H   0  0  0  0  0  0  0  0  0  0  0  0
   10.1132   -0.5298    0.0000 H   0  0  0  0  0  0  0  0  0  0  0  0
    3.9389    1.8255    0.0000 H   0  0  0  0  0  0  0  0  0  0  0  0
   10.9736    0.9234    0.0000 H   0  0  0  0  0  0  0  0  0  0  0  0
   10.1765    0.9203    0.0000 H   0  0  0  0  0  0  0  0  0  0  0  0
    2.5402   -0.5971    0.0000 H   0  0  0  0  0  0  0  0  0  0  0  0
    2.2478    2.1850    0.0000 H   0  0  0  0  0  0  0  0  0  0  0  0
   11.9806    0.2623    0.0000 H   0  0  0  0  0  0  0  0  0  0  0  0
  1 17  1  0  0  0  0
  1 19  1  0  0  0  0
  2 18  1  0  0  0  0
  2 33  1  0  0  0  0
  3 10  1  0  0  0  0
  3 15  1  0  0  0  0
  3 25  1  0  0  0  0
  4 10  2  0  0  0  0
  4 14  1  0  0  0  0
  5  6  1  0  0  0  0
  5  8  1  0  0  0  0
  5  9  2  0  0  0  0
  6 11  1  0  0  0  0
  6 14  2  0  0  0  0
  7  8  2  0  0  0  0
  7 12  1  0  0  0  0
  7 13  1  0  0  0  0
  8 20  1  0  0  0  0
  9 10  1  0  0  0  0
  9 21  1  0  0  0  0
 11 12  2  0  0  0  0
 11 22  1  0  0  0  0
 12 23  1  0  0  0  0
 13 16  1  0  0  0  0
 13 17  2  0  0  0  0
 14 24  1  0  0  0  0
 15 18  1  0  0  0  0
 15 26  1  0  0  0  0
 15 27  1  0  0  0  0
 16 19  2  0  0  0  0
 16 28  1  0  0  0  0
 17 31  1  0  0  0  0
 18 29  1  0  0  0  0
 18 30  1  0  0  0  0
 19 32  1  0  0  0  0
M  END
> <PUBCHEM_COMPOUND_CID>
49830963

> <PUBCHEM_COMPOUND_CANONICALIZED>
1

> <PUBCHEM_CACTVS_COMPLEXITY>
289

> <PUBCHEM_CACTVS_HBOND_ACCEPTOR>
4

> <PUBCHEM_CACTVS_HBOND_DONOR>
2

> <PUBCHEM_CACTVS_ROTATABLE_BOND>
4

> <PUBCHEM_CACTVS_SUBSKEYS>
AAADccBzIABAAAAAAAAAAAAAAAAAASAAAAA8QAAAAAAAAACx/AAAHgQQCAAADADl2ga9sdLIEgikAjJnZACDgKkxCjBJ2Lg4ZJiKMOLgmZGEIAhokAL4yCcQgMAOwAACAAAQAACAAAQAACAAAAAAAAAAAA==

> <PUBCHEM_IUPAC_OPENEYE_NAME>
2-[[6-(3-thienyl)-3-isoquinolyl]amino]ethanol

> <PUBCHEM_IUPAC_CAS_NAME>
2-[[6-(3-thiophenyl)-3-isoquinolinyl]amino]ethanol

> <PUBCHEM_IUPAC_NAME_MARKUP>
2-[(6-thiophen-3-ylisoquinolin-3-yl)amino]ethanol

> <PUBCHEM_IUPAC_NAME>
2-[(6-thiophen-3-ylisoquinolin-3-yl)amino]ethanol

> <PUBCHEM_IUPAC_SYSTEMATIC_NAME>
2-[(6-thiophen-3-ylisoquinolin-3-yl)amino]ethanol

> <PUBCHEM_IUPAC_TRADITIONAL_NAME>
2-[[6-(3-thienyl)-3-isoquinolyl]amino]ethanol

> <PUBCHEM_IUPAC_INCHI>
InChI=1S/C15H14N2OS/c18-5-4-16-15-8-14-7-11(13-3-6-19-10-13)1-2-12(14)9-17-15/h1-3,6-10,18H,4-5H2,(H,16,17)

> <PUBCHEM_IUPAC_INCHIKEY>
PQOAVBVTXNJMCM-UHFFFAOYSA-N

> <PUBCHEM_XLOGP3_AA>
3

> <PUBCHEM_EXACT_MASS>
270.08268425

> <PUBCHEM_MOLECULAR_FORMULA>
C15H14N2OS

> <PUBCHEM_MOLECULAR_WEIGHT>
270.4

> <PUBCHEM_SMILES>
C1=CC2=CN=C(C=C2C=C1C3=CSC=C3)NCCO

> <PUBCHEM_OPENEYE_CAN_SMILES>
C1=CC2=CN=C(C=C2C=C1C3=CSC=C3)NCCO

> <PUBCHEM_OPENEYE_ISO_SMILES>
C1=CC2=CN=C(C=C2C=C1C3=CSC=C3)NCCO

> <PUBCHEM_CACTVS_TPSA>
73.4

> <PUBCHEM_MONOISOTOPIC_WEIGHT>
270.08268425

> <PUBCHEM_TOTAL_CHARGE>
0

> <PUBCHEM_HEAVY_ATOM_COUNT>
19

> <PUBCHEM_ATOM_DEF_STEREO_COUNT>
0

> <PUBCHEM_ATOM_UDEF_STEREO_COUNT>
0

> <PUBCHEM_BOND_DEF_STEREO_COUNT>
0

> <PUBCHEM_BOND_UDEF_STEREO_COUNT>
0

> <PUBCHEM_ISOTOPIC_ATOM_COUNT>
0

> <PUBCHEM_COMPONENT_COUNT>
1

> <PUBCHEM_CACTVS_TAUTO_COUNT>
-1

> <PUBCHEM_COORDINATE_TYPE>
1
5
255

> <PUBCHEM_BONDANNOTATIONS>
1  17  8
1  19  8
11  12  8
13  16  8
13  17  8
16  19  8
4  10  8
4  14  8
5  6  8
5  8  8
5  9  8
6  11  8
6  14  8
7  12  8
7  8  8
9  10  8

$$$$
