25016188
  -OEChem-03202504012D

 47 51  0     0  0  0  0  0  0999 V2000
    2.0000    2.1830    0.0000 Cl  0  0  0  0  0  0  0  0  0  0  0  0
    7.2764   -2.6217    0.0000 S   0  0  0  0  0  0  0  0  0  0  0  0
    3.7320    5.1830    0.0000 O   0  0  0  0  0  0  0  0  0  0  0  0
    5.4641   -3.8170    0.0000 N   0  0  0  0  0  0  0  0  0  0  0  0
    3.7320    3.1830    0.0000 N   0  0  0  0  0  0  0  0  0  0  0  0
    4.5981   -2.3170    0.0000 N   0  0  0  0  0  0  0  0  0  0  0  0
    3.7320   -0.8170    0.0000 N   0  0  0  0  0  0  0  0  0  0  0  0
    5.4641   -0.8170    0.0000 N   0  0  0  0  0  0  0  0  0  0  0  0
    4.5981   -4.3170    0.0000 C   0  0  0  0  0  0  0  0  0  0  0  0
    3.5981   -4.3170    0.0000 C   0  0  0  0  0  0  0  0  0  0  0  0
    4.0981   -5.1830    0.0000 C   0  0  0  0  0  0  0  0  0  0  0  0
    5.4641   -2.8170    0.0000 C   0  0  0  0  0  0  0  0  0  0  0  0
    6.3301   -2.3170    0.0000 C   0  0  0  0  0  0  0  0  0  0  0  0
    2.8660    3.6830    0.0000 C   0  0  0  0  0  0  0  0  0  0  0  0
    4.5981    3.6830    0.0000 C   0  0  0  0  0  0  0  0  0  0  0  0
    2.8660    4.6830    0.0000 C   0  0  0  0  0  0  0  0  0  0  0  0
    4.5981    4.6830    0.0000 C   0  0  0  0  0  0  0  0  0  0  0  0
    3.7320    2.1830    0.0000 C   0  0  0  0  0  0  0  0  0  0  0  0
    6.3301   -1.3170    0.0000 C   0  0  0  0  0  0  0  0  0  0  0  0
    4.5981   -1.3170    0.0000 C   0  0  0  0  0  0  0  0  0  0  0  0
    2.8660    1.6830    0.0000 C   0  0  0  0  0  0  0  0  0  0  0  0
    4.5981    1.6830    0.0000 C   0  0  0  0  0  0  0  0  0  0  0  0
    3.7320    0.1830    0.0000 C   0  0  0  0  0  0  0  0  0  0  0  0
    7.2764   -1.0123    0.0000 C   0  0  0  0  0  0  0  0  0  0  0  0
    2.8660    0.6830    0.0000 C   0  0  0  0  0  0  0  0  0  0  0  0
    4.5981    0.6830    0.0000 C   0  0  0  0  0  0  0  0  0  0  0  0
    7.8600   -1.8170    0.0000 C   0  0  0  0  0  0  0  0  0  0  0  0
    5.0365   -4.7554    0.0000 H   0  0  0  0  0  0  0  0  0  0  0  0
    3.4904   -3.7064    0.0000 H   0  0  0  0  0  0  0  0  0  0  0  0
    3.0155   -4.5290    0.0000 H   0  0  0  0  0  0  0  0  0  0  0  0
    3.6231   -5.5815    0.0000 H   0  0  0  0  0  0  0  0  0  0  0  0
    4.5730   -5.5815    0.0000 H   0  0  0  0  0  0  0  0  0  0  0  0
    6.0010   -4.1270    0.0000 H   0  0  0  0  0  0  0  0  0  0  0  0
    2.2554    3.7907    0.0000 H   0  0  0  0  0  0  0  0  0  0  0  0
    2.6540    3.1004    0.0000 H   0  0  0  0  0  0  0  0  0  0  0  0
    4.8101    3.1004    0.0000 H   0  0  0  0  0  0  0  0  0  0  0  0
    5.2087    3.7907    0.0000 H   0  0  0  0  0  0  0  0  0  0  0  0
    2.6540    5.2656    0.0000 H   0  0  0  0  0  0  0  0  0  0  0  0
    2.2554    4.5754    0.0000 H   0  0  0  0  0  0  0  0  0  0  0  0
    5.2087    4.5754    0.0000 H   0  0  0  0  0  0  0  0  0  0  0  0
    4.8101    5.2656    0.0000 H   0  0  0  0  0  0  0  0  0  0  0  0
    5.1350    1.9930    0.0000 H   0  0  0  0  0  0  0  0  0  0  0  0
    3.1951   -1.1270    0.0000 H   0  0  0  0  0  0  0  0  0  0  0  0
    7.4690   -0.4229    0.0000 H   0  0  0  0  0  0  0  0  0  0  0  0
    2.3291    0.3730    0.0000 H   0  0  0  0  0  0  0  0  0  0  0  0
    5.1350    0.3730    0.0000 H   0  0  0  0  0  0  0  0  0  0  0  0
    8.4800   -1.8170    0.0000 H   0  0  0  0  0  0  0  0  0  0  0  0
  1 21  1  0  0  0  0
  2 13  1  0  0  0  0
  2 27  1  0  0  0  0
  3 16  1  0  0  0  0
  3 17  1  0  0  0  0
  4  9  1  0  0  0  0
  4 12  1  0  0  0  0
  4 33  1  0  0  0  0
  5 14  1  0  0  0  0
  5 15  1  0  0  0  0
  5 18  1  0  0  0  0
  6 12  2  0  0  0  0
  6 20  1  0  0  0  0
  7 20  1  0  0  0  0
  7 23  1  0  0  0  0
  7 43  1  0  0  0  0
  8 19  1  0  0  0  0
  8 20  2  0  0  0  0
  9 10  1  0  0  0  0
  9 11  1  0  0  0  0
  9 28  1  0  0  0  0
 10 11  1  0  0  0  0
 10 29  1  0  0  0  0
 10 30  1  0  0  0  0
 11 31  1  0  0  0  0
 11 32  1  0  0  0  0
 12 13  1  0  0  0  0
 13 19  2  0  0  0  0
 14 16  1  0  0  0  0
 14 34  1  0  0  0  0
 14 35  1  0  0  0  0
 15 17  1  0  0  0  0
 15 36  1  0  0  0  0
 15 37  1  0  0  0  0
 16 38  1  0  0  0  0
 16 39  1  0  0  0  0
 17 40  1  0  0  0  0
 17 41  1  0  0  0  0
 18 21  2  0  0  0  0
 18 22  1  0  0  0  0
 19 24  1  0  0  0  0
 21 25  1  0  0  0  0
 22 26  2  0  0  0  0
 22 42  1  0  0  0  0
 23 25  2  0  0  0  0
 23 26  1  0  0  0  0
 24 27  2  0  0  0  0
 24 44  1  0  0  0  0
 25 45  1  0  0  0  0
 26 46  1  0  0  0  0
 27 47  1  0  0  0  0
M  END
> <PUBCHEM_COMPOUND_CID>
25016188

> <PUBCHEM_COMPOUND_CANONICALIZED>
1

> <PUBCHEM_CACTVS_COMPLEXITY>
506

> <PUBCHEM_CACTVS_HBOND_ACCEPTOR>
7

> <PUBCHEM_CACTVS_HBOND_DONOR>
2

> <PUBCHEM_CACTVS_ROTATABLE_BOND>
5

> <PUBCHEM_CACTVS_SUBSKEYS>
AAADceB7oABEAAAAAAAAAAAAGAAAASAAAAA8WIAAAAAAAFgB/AAAHgYQAAAACCrl1iax8bfIFAikASZiZACDoKkhD7BJmLw4ZpiKKKLh29HHJAxokAL4yCcQAAAAAACAAAIAABAAAQAABAAAIAAAAAAAAA==

> <PUBCHEM_IUPAC_OPENEYE_NAME>
N2-(3-chloro-4-morpholino-phenyl)-N4-cyclopropyl-thieno[3,2-d]pyrimidine-2,4-diamine

> <PUBCHEM_IUPAC_CAS_NAME>
N2-[3-chloro-4-(4-morpholinyl)phenyl]-N4-cyclopropylthieno[3,2-d]pyrimidine-2,4-diamine

> <PUBCHEM_IUPAC_NAME_MARKUP>
2-<I>N</I>-(3-chloro-4-morpholin-4-ylphenyl)-4-<I>N</I>-cyclopropylthieno[3,2-d]pyrimidine-2,4-diamine

> <PUBCHEM_IUPAC_NAME>
2-N-(3-chloro-4-morpholin-4-ylphenyl)-4-N-cyclopropylthieno[3,2-d]pyrimidine-2,4-diamine

> <PUBCHEM_IUPAC_SYSTEMATIC_NAME>
N2-(3-chloranyl-4-morpholin-4-yl-phenyl)-N4-cyclopropyl-thieno[3,2-d]pyrimidine-2,4-diamine

> <PUBCHEM_IUPAC_TRADITIONAL_NAME>
[2-(3-chloro-4-morpholino-anilino)thieno[3,2-d]pyrimidin-4-yl]-cyclopropyl-amine

> <PUBCHEM_IUPAC_INCHI>
InChI=1S/C19H20ClN5OS/c20-14-11-13(3-4-16(14)25-6-8-26-9-7-25)22-19-23-15-5-10-27-17(15)18(24-19)21-12-1-2-12/h3-5,10-12H,1-2,6-9H2,(H2,21,22,23,24)

> <PUBCHEM_IUPAC_INCHIKEY>
AMEJAXGXJBKLDC-UHFFFAOYSA-N

> <PUBCHEM_XLOGP3_AA>
4.4

> <PUBCHEM_EXACT_MASS>
401.1077091

> <PUBCHEM_MOLECULAR_FORMULA>
C19H20ClN5OS

> <PUBCHEM_MOLECULAR_WEIGHT>
401.9

> <PUBCHEM_SMILES>
C1CC1NC2=NC(=NC3=C2SC=C3)NC4=CC(=C(C=C4)N5CCOCC5)Cl

> <PUBCHEM_OPENEYE_CAN_SMILES>
C1CC1NC2=NC(=NC3=C2SC=C3)NC4=CC(=C(C=C4)N5CCOCC5)Cl

> <PUBCHEM_OPENEYE_ISO_SMILES>
C1CC1NC2=NC(=NC3=C2SC=C3)NC4=CC(=C(C=C4)N5CCOCC5)Cl

> <PUBCHEM_CACTVS_TPSA>
90.6

> <PUBCHEM_MONOISOTOPIC_WEIGHT>
401.1077091

> <PUBCHEM_TOTAL_CHARGE>
0

> <PUBCHEM_HEAVY_ATOM_COUNT>
27

> <PUBCHEM_ATOM_DEF_STEREO_COUNT>
0

> <PUBCHEM_ATOM_UDEF_STEREO_COUNT>
0

> <PUBCHEM_BOND_DEF_STEREO_COUNT>
0

> <PUBCHEM_BOND_UDEF_STEREO_COUNT>
0

> <PUBCHEM_ISOTOPIC_ATOM_COUNT>
0

> <PUBCHEM_COMPONENT_COUNT>
1

> <PUBCHEM_CACTVS_TAUTO_COUNT>
-1

> <PUBCHEM_COORDINATE_TYPE>
1
5
255

> <PUBCHEM_BONDANNOTATIONS>
12  13  8
13  19  8
18  21  8
18  22  8
19  24  8
2  13  8
2  27  8
21  25  8
22  26  8
23  25  8
23  26  8
24  27  8
6  12  8
6  20  8
8  19  8
8  20  8

$$$$
