44565014
  -OEChem-03202506542D

 60 65  0     0  0  0  0  0  0999 V2000
    9.9652   -1.1852    0.0000 S   0  0  0  0  0  0  0  0  0  0  0  0
    2.8680   -1.1981    0.0000 O   0  0  0  0  0  0  0  0  0  0  0  0
    2.8680    0.8502    0.0000 O   0  0  0  0  0  0  0  0  0  0  0  0
    6.3981   -2.1739    0.0000 N   0  0  0  0  0  0  0  0  0  0  0  0
    7.2641   -0.6739    0.0000 N   0  0  0  0  0  0  0  0  0  0  0  0
    6.3981    0.8261    0.0000 N   0  0  0  0  0  0  0  0  0  0  0  0
    8.1301    0.8261    0.0000 N   0  0  0  0  0  0  0  0  0  0  0  0
   10.7700   -2.5790    0.0000 N   0  0  0  0  0  0  0  0  0  0  0  0
    7.6301    3.3649    0.0000 N   0  0  0  0  0  0  0  0  0  0  0  0
    7.3211    2.4139    0.0000 N   0  0  0  0  0  0  0  0  0  0  0  0
    5.5320   -0.6739    0.0000 C   0  0  0  0  0  0  0  0  0  0  0  0
    6.3981   -1.1739    0.0000 C   0  0  0  0  0  0  0  0  0  0  0  0
    5.5320    0.3261    0.0000 C   0  0  0  0  0  0  0  0  0  0  0  0
    7.2641   -2.6739    0.0000 C   0  0  0  0  0  0  0  0  0  0  0  0
    4.6381   -1.2086    0.0000 C   0  0  0  0  0  0  0  0  0  0  0  0
    8.9962   -2.6739    0.0000 C   0  0  0  0  0  0  0  0  0  0  0  0
    4.6381    0.8607    0.0000 C   0  0  0  0  0  0  0  0  0  0  0  0
    3.7320   -0.6947    0.0000 C   0  0  0  0  0  0  0  0  0  0  0  0
    3.7320    0.3469    0.0000 C   0  0  0  0  0  0  0  0  0  0  0  0
    8.1301   -2.1739    0.0000 C   0  0  0  0  0  0  0  0  0  0  0  0
    7.2641    0.3261    0.0000 C   0  0  0  0  0  0  0  0  0  0  0  0
    9.8622   -2.1739    0.0000 C   0  0  0  0  0  0  0  0  0  0  0  0
    7.2641   -3.6739    0.0000 C   0  0  0  0  0  0  0  0  0  0  0  0
    8.9962   -3.6739    0.0000 C   0  0  0  0  0  0  0  0  0  0  0  0
    8.1301   -4.1739    0.0000 C   0  0  0  0  0  0  0  0  0  0  0  0
   10.9370   -0.9760    0.0000 C   0  0  0  0  0  0  0  0  0  0  0  0
   11.4370   -1.8420    0.0000 C   0  0  0  0  0  0  0  0  0  0  0  0
    8.1301    1.8261    0.0000 C   0  0  0  0  0  0  0  0  0  0  0  0
    8.9391    2.4139    0.0000 C   0  0  0  0  0  0  0  0  0  0  0  0
   11.4370   -0.1100    0.0000 C   0  0  0  0  0  0  0  0  0  0  0  0
   12.4370   -1.8420    0.0000 C   0  0  0  0  0  0  0  0  0  0  0  0
    8.6301    3.3649    0.0000 C   0  0  0  0  0  0  0  0  0  0  0  0
   12.4370   -0.1100    0.0000 C   0  0  0  0  0  0  0  0  0  0  0  0
   12.9370   -0.9760    0.0000 C   0  0  0  0  0  0  0  0  0  0  0  0
    9.2179    4.1739    0.0000 C   0  0  0  0  0  0  0  0  0  0  0  0
    2.0000   -0.7014    0.0000 C   0  0  0  0  0  0  0  0  0  0  0  0
    2.8718    1.8502    0.0000 C   0  0  0  0  0  0  0  0  0  0  0  0
    5.8611   -2.4839    0.0000 H   0  0  0  0  0  0  0  0  0  0  0  0
    4.6453   -1.8286    0.0000 H   0  0  0  0  0  0  0  0  0  0  0  0
    4.6453    1.4807    0.0000 H   0  0  0  0  0  0  0  0  0  0  0  0
    8.1301   -1.5539    0.0000 H   0  0  0  0  0  0  0  0  0  0  0  0
    6.7272   -3.9839    0.0000 H   0  0  0  0  0  0  0  0  0  0  0  0
    9.5331   -3.9839    0.0000 H   0  0  0  0  0  0  0  0  0  0  0  0
    8.1301   -4.7939    0.0000 H   0  0  0  0  0  0  0  0  0  0  0  0
    8.6671    0.5161    0.0000 H   0  0  0  0  0  0  0  0  0  0  0  0
    9.5288    2.2223    0.0000 H   0  0  0  0  0  0  0  0  0  0  0  0
   11.1270    0.4270    0.0000 H   0  0  0  0  0  0  0  0  0  0  0  0
   12.7470   -2.3790    0.0000 H   0  0  0  0  0  0  0  0  0  0  0  0
   12.7470    0.4270    0.0000 H   0  0  0  0  0  0  0  0  0  0  0  0
   13.5570   -0.9760    0.0000 H   0  0  0  0  0  0  0  0  0  0  0  0
    7.2657    3.8665    0.0000 H   0  0  0  0  0  0  0  0  0  0  0  0
    9.7195    3.8095    0.0000 H   0  0  0  0  0  0  0  0  0  0  0  0
    9.5823    4.6755    0.0000 H   0  0  0  0  0  0  0  0  0  0  0  0
    8.7163    4.5384    0.0000 H   0  0  0  0  0  0  0  0  0  0  0  0
    2.3079   -0.1633    0.0000 H   0  0  0  0  0  0  0  0  0  0  0  0
    1.4619   -0.3935    0.0000 H   0  0  0  0  0  0  0  0  0  0  0  0
    1.6921   -1.2396    0.0000 H   0  0  0  0  0  0  0  0  0  0  0  0
    3.4918    1.8478    0.0000 H   0  0  0  0  0  0  0  0  0  0  0  0
    2.8742    2.4702    0.0000 H   0  0  0  0  0  0  0  0  0  0  0  0
    2.2518    1.8526    0.0000 H   0  0  0  0  0  0  0  0  0  0  0  0
  1 22  1  0  0  0  0
  1 26  1  0  0  0  0
  2 18  1  0  0  0  0
  2 36  1  0  0  0  0
  3 19  1  0  0  0  0
  3 37  1  0  0  0  0
  4 12  1  0  0  0  0
  4 14  1  0  0  0  0
  4 38  1  0  0  0  0
  5 12  2  0  0  0  0
  5 21  1  0  0  0  0
  6 13  1  0  0  0  0
  6 21  2  0  0  0  0
  7 21  1  0  0  0  0
  7 28  1  0  0  0  0
  7 45  1  0  0  0  0
  8 22  2  0  0  0  0
  8 27  1  0  0  0  0
  9 10  1  0  0  0  0
  9 32  1  0  0  0  0
  9 51  1  0  0  0  0
 10 28  2  0  0  0  0
 11 12  1  0  0  0  0
 11 13  1  0  0  0  0
 11 15  2  0  0  0  0
 13 17  2  0  0  0  0
 14 20  1  0  0  0  0
 14 23  2  0  0  0  0
 15 18  1  0  0  0  0
 15 39  1  0  0  0  0
 16 20  2  0  0  0  0
 16 22  1  0  0  0  0
 16 24  1  0  0  0  0
 17 19  1  0  0  0  0
 17 40  1  0  0  0  0
 18 19  2  0  0  0  0
 20 41  1  0  0  0  0
 23 25  1  0  0  0  0
 23 42  1  0  0  0  0
 24 25  2  0  0  0  0
 24 43  1  0  0  0  0
 25 44  1  0  0  0  0
 26 27  1  0  0  0  0
 26 30  2  0  0  0  0
 27 31  2  0  0  0  0
 28 29  1  0  0  0  0
 29 32  2  0  0  0  0
 29 46  1  0  0  0  0
 30 33  1  0  0  0  0
 30 47  1  0  0  0  0
 31 34  1  0  0  0  0
 31 48  1  0  0  0  0
 32 35  1  0  0  0  0
 33 34  2  0  0  0  0
 33 49  1  0  0  0  0
 34 50  1  0  0  0  0
 35 52  1  0  0  0  0
 35 53  1  0  0  0  0
 35 54  1  0  0  0  0
 36 55  1  0  0  0  0
 36 56  1  0  0  0  0
 36 57  1  0  0  0  0
 37 58  1  0  0  0  0
 37 59  1  0  0  0  0
 37 60  1  0  0  0  0
M  END
> <PUBCHEM_COMPOUND_CID>
44565014

> <PUBCHEM_COMPOUND_CANONICALIZED>
1

> <PUBCHEM_CACTVS_COMPLEXITY>
752

> <PUBCHEM_CACTVS_HBOND_ACCEPTOR>
9

> <PUBCHEM_CACTVS_HBOND_DONOR>
3

> <PUBCHEM_CACTVS_ROTATABLE_BOND>
7

> <PUBCHEM_CACTVS_SUBSKEYS>
AAADceB7sABAAAAAAAAAAAAAAAAAAWLAAAA8YMEAAAAAAFix/gAAHgQYAAAADAyB3gIz9/brFAimAyZiZACT/KthKrhduTw27JiNLuLk+duEtCp+2Bvq6Cew0BMOIEABQgACQQBAgAKEAASCAAAAAAAAAA==

> <PUBCHEM_IUPAC_OPENEYE_NAME>
N4-[3-(1,3-benzothiazol-2-yl)phenyl]-6,7-dimethoxy-N2-(5-methyl-1H-pyrazol-3-yl)quinazoline-2,4-diamine

> <PUBCHEM_IUPAC_CAS_NAME>
N4-[3-(1,3-benzothiazol-2-yl)phenyl]-6,7-dimethoxy-N2-(5-methyl-1H-pyrazol-3-yl)quinazoline-2,4-diamine

> <PUBCHEM_IUPAC_NAME_MARKUP>
4-<I>N</I>-[3-(1,3-benzothiazol-2-yl)phenyl]-6,7-dimethoxy-2-<I>N</I>-(5-methyl-1<I>H</I>-pyrazol-3-yl)quinazoline-2,4-diamine

> <PUBCHEM_IUPAC_NAME>
4-N-[3-(1,3-benzothiazol-2-yl)phenyl]-6,7-dimethoxy-2-N-(5-methyl-1H-pyrazol-3-yl)quinazoline-2,4-diamine

> <PUBCHEM_IUPAC_SYSTEMATIC_NAME>
N4-[3-(1,3-benzothiazol-2-yl)phenyl]-6,7-dimethoxy-N2-(5-methyl-1H-pyrazol-3-yl)quinazoline-2,4-diamine

> <PUBCHEM_IUPAC_TRADITIONAL_NAME>
[4-[3-(1,3-benzothiazol-2-yl)anilino]-6,7-dimethoxy-quinazolin-2-yl]-(5-methyl-1H-pyrazol-3-yl)amine

> <PUBCHEM_IUPAC_INCHI>
InChI=1S/C27H23N7O2S/c1-15-11-24(34-33-15)31-27-30-20-14-22(36-3)21(35-2)13-18(20)25(32-27)28-17-8-6-7-16(12-17)26-29-19-9-4-5-10-23(19)37-26/h4-14H,1-3H3,(H3,28,30,31,32,33,34)

> <PUBCHEM_IUPAC_INCHIKEY>
GEPKFPGFWUHVLZ-UHFFFAOYSA-N

> <PUBCHEM_XLOGP3_AA>
6.4

> <PUBCHEM_EXACT_MASS>
509.16339418

> <PUBCHEM_MOLECULAR_FORMULA>
C27H23N7O2S

> <PUBCHEM_MOLECULAR_WEIGHT>
509.6

> <PUBCHEM_SMILES>
CC1=CC(=NN1)NC2=NC3=CC(=C(C=C3C(=N2)NC4=CC=CC(=C4)C5=NC6=CC=CC=C6S5)OC)OC

> <PUBCHEM_OPENEYE_CAN_SMILES>
CC1=CC(=NN1)NC2=NC3=CC(=C(C=C3C(=N2)NC4=CC=CC(=C4)C5=NC6=CC=CC=C6S5)OC)OC

> <PUBCHEM_OPENEYE_ISO_SMILES>
CC1=CC(=NN1)NC2=NC3=CC(=C(C=C3C(=N2)NC4=CC=CC(=C4)C5=NC6=CC=CC=C6S5)OC)OC

> <PUBCHEM_CACTVS_TPSA>
138

> <PUBCHEM_MONOISOTOPIC_WEIGHT>
509.16339418

> <PUBCHEM_TOTAL_CHARGE>
0

> <PUBCHEM_HEAVY_ATOM_COUNT>
37

> <PUBCHEM_ATOM_DEF_STEREO_COUNT>
0

> <PUBCHEM_ATOM_UDEF_STEREO_COUNT>
0

> <PUBCHEM_BOND_DEF_STEREO_COUNT>
0

> <PUBCHEM_BOND_UDEF_STEREO_COUNT>
0

> <PUBCHEM_ISOTOPIC_ATOM_COUNT>
0

> <PUBCHEM_COMPONENT_COUNT>
1

> <PUBCHEM_CACTVS_TAUTO_COUNT>
-1

> <PUBCHEM_COORDINATE_TYPE>
1
5
255

> <PUBCHEM_BONDANNOTATIONS>
1  22  8
1  26  8
10  28  8
11  12  8
11  13  8
11  15  8
13  17  8
14  20  8
14  23  8
15  18  8
16  20  8
16  24  8
17  19  8
18  19  8
23  25  8
24  25  8
26  27  8
26  30  8
27  31  8
28  29  8
29  32  8
30  33  8
31  34  8
33  34  8
5  12  8
5  21  8
6  13  8
6  21  8
8  22  8
8  27  8
9  10  8
9  32  8

$$$$
