49830457
  -OEChem-03202503052D

 56 60  0     0  0  0  0  0  0999 V2000
   12.2486   -1.2366    0.0000 O   0  0  0  0  0  0  0  0  0  0  0  0
   10.8664    2.8973    0.0000 O   0  0  0  0  0  0  0  0  0  0  0  0
   12.8234    3.3098    0.0000 O   0  0  0  0  0  0  0  0  0  0  0  0
    5.1646   -1.1174    0.0000 N   0  0  0  0  0  0  0  0  0  0  0  0
   10.2916   -3.2585    0.0000 N   0  0  0  0  0  0  0  0  0  0  0  0
   10.6022   -0.6985    0.0000 N   0  0  0  0  0  0  0  0  0  0  0  0
   10.8752   -2.4538    0.0000 N   0  0  0  0  0  0  0  0  0  0  0  0
    6.6428   -0.4593    0.0000 N   0  0  0  0  0  0  0  0  0  0  0  0
    5.6646   -0.2514    0.0000 N   0  0  0  0  0  0  0  0  0  0  0  0
    9.3454   -1.9538    0.0000 C   0  0  0  0  0  0  0  0  0  0  0  0
    9.3454   -2.9538    0.0000 C   0  0  0  0  0  0  0  0  0  0  0  0
    7.6133   -1.9538    0.0000 C   0  0  0  0  0  0  0  0  0  0  0  0
    8.4793   -1.4538    0.0000 C   0  0  0  0  0  0  0  0  0  0  0  0
   10.2916   -1.6491    0.0000 C   0  0  0  0  0  0  0  0  0  0  0  0
    6.7473   -1.4538    0.0000 C   0  0  0  0  0  0  0  0  0  0  0  0
    8.4793   -3.4538    0.0000 C   0  0  0  0  0  0  0  0  0  0  0  0
    7.6133   -2.9538    0.0000 C   0  0  0  0  0  0  0  0  0  0  0  0
    4.1701   -1.2219    0.0000 C   0  0  0  0  0  0  0  0  0  0  0  0
    5.8338   -1.8605    0.0000 C   0  0  0  0  0  0  0  0  0  0  0  0
    3.5823   -0.4129    0.0000 C   0  0  0  0  0  0  0  0  0  0  0  0
   11.5808   -0.4923    0.0000 C   0  0  0  0  0  0  0  0  0  0  0  0
   11.8914    0.4582    0.0000 C   0  0  0  0  0  0  0  0  0  0  0  0
    2.5878   -0.5174    0.0000 C   0  0  0  0  0  0  0  0  0  0  0  0
    3.9890    0.5007    0.0000 C   0  0  0  0  0  0  0  0  0  0  0  0
   11.2236    1.2025    0.0000 C   0  0  0  0  0  0  0  0  0  0  0  0
   12.8699    0.6644    0.0000 C   0  0  0  0  0  0  0  0  0  0  0  0
   11.5342    2.1530    0.0000 C   0  0  0  0  0  0  0  0  0  0  0  0
   12.5127    2.3592    0.0000 C   0  0  0  0  0  0  0  0  0  0  0  0
   13.1806    1.6149    0.0000 C   0  0  0  0  0  0  0  0  0  0  0  0
    2.0000    0.2916    0.0000 C   0  0  0  0  0  0  0  0  0  0  0  0
    3.4013    1.3097    0.0000 C   0  0  0  0  0  0  0  0  0  0  0  0
    2.4067    1.2051    0.0000 C   0  0  0  0  0  0  0  0  0  0  0  0
   11.1771    3.8478    0.0000 C   0  0  0  0  0  0  0  0  0  0  0  0
   13.8019    3.5160    0.0000 C   0  0  0  0  0  0  0  0  0  0  0  0
    8.4793   -0.8338    0.0000 H   0  0  0  0  0  0  0  0  0  0  0  0
    8.4793   -4.0738    0.0000 H   0  0  0  0  0  0  0  0  0  0  0  0
    7.0764   -3.2638    0.0000 H   0  0  0  0  0  0  0  0  0  0  0  0
   10.4842   -3.8478    0.0000 H   0  0  0  0  0  0  0  0  0  0  0  0
    3.6128   -1.4937    0.0000 H   0  0  0  0  0  0  0  0  0  0  0  0
    4.3410   -1.8179    0.0000 H   0  0  0  0  0  0  0  0  0  0  0  0
    5.7048   -2.4670    0.0000 H   0  0  0  0  0  0  0  0  0  0  0  0
   10.1882   -0.2371    0.0000 H   0  0  0  0  0  0  0  0  0  0  0  0
    2.3356   -1.0838    0.0000 H   0  0  0  0  0  0  0  0  0  0  0  0
    4.6056    0.5655    0.0000 H   0  0  0  0  0  0  0  0  0  0  0  0
   10.6169    1.0747    0.0000 H   0  0  0  0  0  0  0  0  0  0  0  0
   13.2840    0.2030    0.0000 H   0  0  0  0  0  0  0  0  0  0  0  0
   13.7873    1.7428    0.0000 H   0  0  0  0  0  0  0  0  0  0  0  0
    1.3834    0.2268    0.0000 H   0  0  0  0  0  0  0  0  0  0  0  0
    3.6534    1.8761    0.0000 H   0  0  0  0  0  0  0  0  0  0  0  0
    2.0423    1.7067    0.0000 H   0  0  0  0  0  0  0  0  0  0  0  0
   11.7664    3.6552    0.0000 H   0  0  0  0  0  0  0  0  0  0  0  0
   11.3697    4.4372    0.0000 H   0  0  0  0  0  0  0  0  0  0  0  0
   10.5877    4.0405    0.0000 H   0  0  0  0  0  0  0  0  0  0  0  0
   13.9298    2.9093    0.0000 H   0  0  0  0  0  0  0  0  0  0  0  0
   14.4086    3.6438    0.0000 H   0  0  0  0  0  0  0  0  0  0  0  0
   13.6741    4.1226    0.0000 H   0  0  0  0  0  0  0  0  0  0  0  0
  1 21  2  0  0  0  0
  2 27  1  0  0  0  0
  2 33  1  0  0  0  0
  3 28  1  0  0  0  0
  3 34  1  0  0  0  0
  4  9  1  0  0  0  0
  4 18  1  0  0  0  0
  4 19  1  0  0  0  0
  5  7  1  0  0  0  0
  5 11  1  0  0  0  0
  5 38  1  0  0  0  0
  6 14  1  0  0  0  0
  6 21  1  0  0  0  0
  6 42  1  0  0  0  0
  7 14  2  0  0  0  0
  8  9  2  0  0  0  0
  8 15  1  0  0  0  0
 10 11  2  0  0  0  0
 10 13  1  0  0  0  0
 10 14  1  0  0  0  0
 11 16  1  0  0  0  0
 12 13  2  0  0  0  0
 12 15  1  0  0  0  0
 12 17  1  0  0  0  0
 13 35  1  0  0  0  0
 15 19  2  0  0  0  0
 16 17  2  0  0  0  0
 16 36  1  0  0  0  0
 17 37  1  0  0  0  0
 18 20  1  0  0  0  0
 18 39  1  0  0  0  0
 18 40  1  0  0  0  0
 19 41  1  0  0  0  0
 20 23  2  0  0  0  0
 20 24  1  0  0  0  0
 21 22  1  0  0  0  0
 22 25  2  0  0  0  0
 22 26  1  0  0  0  0
 23 30  1  0  0  0  0
 23 43  1  0  0  0  0
 24 31  2  0  0  0  0
 24 44  1  0  0  0  0
 25 27  1  0  0  0  0
 25 45  1  0  0  0  0
 26 29  2  0  0  0  0
 26 46  1  0  0  0  0
 27 28  2  0  0  0  0
 28 29  1  0  0  0  0
 29 47  1  0  0  0  0
 30 32  2  0  0  0  0
 30 48  1  0  0  0  0
 31 32  1  0  0  0  0
 31 49  1  0  0  0  0
 32 50  1  0  0  0  0
 33 51  1  0  0  0  0
 33 52  1  0  0  0  0
 33 53  1  0  0  0  0
 34 54  1  0  0  0  0
 34 55  1  0  0  0  0
 34 56  1  0  0  0  0
M  END
> <PUBCHEM_COMPOUND_CID>
49830457

> <PUBCHEM_COMPOUND_CANONICALIZED>
1

> <PUBCHEM_CACTVS_COMPLEXITY>
677

> <PUBCHEM_CACTVS_HBOND_ACCEPTOR>
6

> <PUBCHEM_CACTVS_HBOND_DONOR>
2

> <PUBCHEM_CACTVS_ROTATABLE_BOND>
7

> <PUBCHEM_CACTVS_SUBSKEYS>
AAADceB7sAAAAAAAAAAAAAAAAAAAAWLAAAAwYMAAAAAAAFgB/AAAHgAYAAAADAzBngY/9vLrBACqAzd3dACSDAY1sgAd+SE+/NiNZrLE/duUtSp03RPK6Ye63NLOKAADAAACQABQAAYAAASAAAAAAAAAAA==

> <PUBCHEM_IUPAC_OPENEYE_NAME>
N-[5-(1-benzyltriazol-4-yl)-1H-indazol-3-yl]-3,4-dimethoxy-benzamide

> <PUBCHEM_IUPAC_CAS_NAME>
3,4-dimethoxy-N-[5-[1-(phenylmethyl)-4-triazolyl]-1H-indazol-3-yl]benzamide

> <PUBCHEM_IUPAC_NAME_MARKUP>
<I>N</I>-[5-(1-benzyltriazol-4-yl)-1<I>H</I>-indazol-3-yl]-3,4-dimethoxybenzamide

> <PUBCHEM_IUPAC_NAME>
N-[5-(1-benzyltriazol-4-yl)-1H-indazol-3-yl]-3,4-dimethoxybenzamide

> <PUBCHEM_IUPAC_SYSTEMATIC_NAME>
3,4-dimethoxy-N-[5-[1-(phenylmethyl)-1,2,3-triazol-4-yl]-1H-indazol-3-yl]benzamide

> <PUBCHEM_IUPAC_TRADITIONAL_NAME>
N-[5-(1-benzyltriazol-4-yl)-1H-indazol-3-yl]-3,4-dimethoxy-benzamide

> <PUBCHEM_IUPAC_INCHI>
InChI=1S/C25H22N6O3/c1-33-22-11-9-18(13-23(22)34-2)25(32)26-24-19-12-17(8-10-20(19)27-29-24)21-15-31(30-28-21)14-16-6-4-3-5-7-16/h3-13,15H,14H2,1-2H3,(H2,26,27,29,32)

> <PUBCHEM_IUPAC_INCHIKEY>
ZGZVRPRSFXRGCF-UHFFFAOYSA-N

> <PUBCHEM_XLOGP3_AA>
3.7

> <PUBCHEM_EXACT_MASS>
454.17533859

> <PUBCHEM_MOLECULAR_FORMULA>
C25H22N6O3

> <PUBCHEM_MOLECULAR_WEIGHT>
454.5

> <PUBCHEM_SMILES>
COC1=C(C=C(C=C1)C(=O)NC2=NNC3=C2C=C(C=C3)C4=CN(N=N4)CC5=CC=CC=C5)OC

> <PUBCHEM_OPENEYE_CAN_SMILES>
COC1=C(C=C(C=C1)C(=O)NC2=NNC3=C2C=C(C=C3)C4=CN(N=N4)CC5=CC=CC=C5)OC

> <PUBCHEM_OPENEYE_ISO_SMILES>
COC1=C(C=C(C=C1)C(=O)NC2=NNC3=C2C=C(C=C3)C4=CN(N=N4)CC5=CC=CC=C5)OC

> <PUBCHEM_CACTVS_TPSA>
107

> <PUBCHEM_MONOISOTOPIC_WEIGHT>
454.17533859

> <PUBCHEM_TOTAL_CHARGE>
0

> <PUBCHEM_HEAVY_ATOM_COUNT>
34

> <PUBCHEM_ATOM_DEF_STEREO_COUNT>
0

> <PUBCHEM_ATOM_UDEF_STEREO_COUNT>
0

> <PUBCHEM_BOND_DEF_STEREO_COUNT>
0

> <PUBCHEM_BOND_UDEF_STEREO_COUNT>
0

> <PUBCHEM_ISOTOPIC_ATOM_COUNT>
0

> <PUBCHEM_COMPONENT_COUNT>
1

> <PUBCHEM_CACTVS_TAUTO_COUNT>
-1

> <PUBCHEM_COORDINATE_TYPE>
1
5
255

> <PUBCHEM_BONDANNOTATIONS>
10  11  8
10  13  8
10  14  8
11  16  8
12  13  8
12  17  8
15  19  8
16  17  8
20  23  8
20  24  8
22  25  8
22  26  8
23  30  8
24  31  8
25  27  8
26  29  8
27  28  8
28  29  8
30  32  8
31  32  8
4  19  8
4  9  8
5  11  8
5  7  8
7  14  8
8  15  8
8  9  8

$$$$
