44340622
  -OEChem-03202506192D

 71 77  0     1  0  0  0  0  0999 V2000
    5.0389    0.1657    0.0000 O   0  0  0  0  0  0  0  0  0  0  0  0
    4.4755   -2.5076    0.0000 O   0  0  0  0  0  0  0  0  0  0  0  0
    3.0354   -2.0672    0.0000 O   0  0  0  0  0  0  0  0  0  0  0  0
    2.4141   -0.1661    0.0000 O   0  0  0  0  0  0  0  0  0  0  0  0
    2.7712    1.5287    0.0000 O   0  0  0  0  0  0  0  0  0  0  0  0
    5.4804   -3.4154    0.0000 O   0  0  0  0  0  0  0  0  0  0  0  0
   10.0540   -1.5792    0.0000 O   0  0  0  0  0  0  0  0  0  0  0  0
   10.0540    1.9313    0.0000 O   0  0  0  0  0  0  0  0  0  0  0  0
   13.3270    1.9081    0.0000 O   0  0  0  0  0  0  0  0  0  0  0  0
   11.8270    2.7741    0.0000 O   0  0  0  0  0  0  0  0  0  0  0  0
    6.3281   -0.9910    0.0000 N   0  0  0  0  0  0  0  0  0  0  0  0
    6.3281    1.3432    0.0000 N   0  0  0  0  0  0  0  0  0  0  0  0
   10.3270    0.1761    0.0000 N   0  0  0  0  0  0  0  0  0  0  0  0
   11.3270    0.1761    0.0000 N   0  0  0  0  0  0  0  0  0  0  0  0
    5.3496   -0.7848    0.0000 C   0  0  3  0  0  0  0  0  0  0  0  0
    4.6817   -1.5291    0.0000 C   0  0  3  0  0  0  0  0  0  0  0  0
    7.0651   -0.3239    0.0000 C   0  0  0  0  0  0  0  0  0  0  0  0
    3.7032   -1.3229    0.0000 C   0  0  3  0  0  0  0  0  0  0  0  0
    3.3926   -0.3724    0.0000 C   0  0  3  0  0  0  0  0  0  0  0  0
    7.9311   -0.8239    0.0000 C   0  0  0  0  0  0  0  0  0  0  0  0
    4.0604    0.3719    0.0000 C   0  0  3  0  0  0  0  0  0  0  0  0
    6.7332   -1.8988    0.0000 C   0  0  0  0  0  0  0  0  0  0  0  0
    7.0651    0.6761    0.0000 C   0  0  0  0  0  0  0  0  0  0  0  0
    7.7219   -1.7958    0.0000 C   0  0  0  0  0  0  0  0  0  0  0  0
    8.7972   -0.3239    0.0000 C   0  0  0  0  0  0  0  0  0  0  0  0
    7.9311    1.1761    0.0000 C   0  0  0  0  0  0  0  0  0  0  0  0
    8.7972    0.6761    0.0000 C   0  0  0  0  0  0  0  0  0  0  0  0
    7.7219    2.1479    0.0000 C   0  0  0  0  0  0  0  0  0  0  0  0
    3.7498    1.3225    0.0000 C   0  0  0  0  0  0  0  0  0  0  0  0
    6.2967   -2.8378    0.0000 C   0  0  0  0  0  0  0  0  0  0  0  0
    6.7332    2.2509    0.0000 C   0  0  0  0  0  0  0  0  0  0  0  0
    9.7434   -0.6287    0.0000 C   0  0  0  0  0  0  0  0  0  0  0  0
    9.7434    0.9808    0.0000 C   0  0  0  0  0  0  0  0  0  0  0  0
    8.3427   -2.6245    0.0000 C   0  0  0  0  0  0  0  0  0  0  0  0
    6.8981   -3.6807    0.0000 C   0  0  0  0  0  0  0  0  0  0  0  0
    7.9280   -3.5733    0.0000 C   0  0  0  0  0  0  0  0  0  0  0  0
    8.3427    2.9766    0.0000 C   0  0  0  0  0  0  0  0  0  0  0  0
    6.2967    3.1899    0.0000 C   0  0  0  0  0  0  0  0  0  0  0  0
   11.8270    1.0421    0.0000 C   0  0  0  0  0  0  0  0  0  0  0  0
    7.9280    3.9254    0.0000 C   0  0  0  0  0  0  0  0  0  0  0  0
    6.8981    4.0328    0.0000 C   0  0  0  0  0  0  0  0  0  0  0  0
   12.8270    1.0421    0.0000 C   0  0  0  0  0  0  0  0  0  0  0  0
   11.3270    1.9081    0.0000 C   0  0  0  0  0  0  0  0  0  0  0  0
    5.7636   -0.3233    0.0000 H   0  0  0  0  0  0  0  0  0  0  0  0
    5.2346   -1.8096    0.0000 H   0  0  0  0  0  0  0  0  0  0  0  0
    3.8958   -1.9122    0.0000 H   0  0  0  0  0  0  0  0  0  0  0  0
    2.9785   -0.8338    0.0000 H   0  0  0  0  0  0  0  0  0  0  0  0
    4.4745    0.8334    0.0000 H   0  0  0  0  0  0  0  0  0  0  0  0
    4.3636    1.4098    0.0000 H   0  0  0  0  0  0  0  0  0  0  0  0
    3.7703    1.9421    0.0000 H   0  0  0  0  0  0  0  0  0  0  0  0
    5.7214    1.2153    0.0000 H   0  0  0  0  0  0  0  0  0  0  0  0
    8.9586   -2.5531    0.0000 H   0  0  0  0  0  0  0  0  0  0  0  0
    3.8863   -2.7003    0.0000 H   0  0  0  0  0  0  0  0  0  0  0  0
    2.4287   -1.9393    0.0000 H   0  0  0  0  0  0  0  0  0  0  0  0
    2.0000   -0.6276    0.0000 H   0  0  0  0  0  0  0  0  0  0  0  0
    6.6433   -4.2459    0.0000 H   0  0  0  0  0  0  0  0  0  0  0  0
    8.2939   -4.0738    0.0000 H   0  0  0  0  0  0  0  0  0  0  0  0
    8.9586    2.9052    0.0000 H   0  0  0  0  0  0  0  0  0  0  0  0
    5.6793    3.2470    0.0000 H   0  0  0  0  0  0  0  0  0  0  0  0
   11.6370   -0.3609    0.0000 H   0  0  0  0  0  0  0  0  0  0  0  0
   11.2070    1.0421    0.0000 H   0  0  0  0  0  0  0  0  0  0  0  0
    2.5786    2.1180    0.0000 H   0  0  0  0  0  0  0  0  0  0  0  0
    8.2939    4.4259    0.0000 H   0  0  0  0  0  0  0  0  0  0  0  0
    5.5375   -4.0328    0.0000 H   0  0  0  0  0  0  0  0  0  0  0  0
    6.6433    4.5980    0.0000 H   0  0  0  0  0  0  0  0  0  0  0  0
   12.7193    0.4315    0.0000 H   0  0  0  0  0  0  0  0  0  0  0  0
   13.4096    0.8300    0.0000 H   0  0  0  0  0  0  0  0  0  0  0  0
   10.8520    2.3066    0.0000 H   0  0  0  0  0  0  0  0  0  0  0  0
   10.8520    1.5096    0.0000 H   0  0  0  0  0  0  0  0  0  0  0  0
   13.9470    1.9081    0.0000 H   0  0  0  0  0  0  0  0  0  0  0  0
   11.5170    3.3111    0.0000 H   0  0  0  0  0  0  0  0  0  0  0  0
  1 15  1  0  0  0  0
  1 21  1  0  0  0  0
  2 16  1  0  0  0  0
  2 53  1  0  0  0  0
  3 18  1  0  0  0  0
  3 54  1  0  0  0  0
  4 19  1  0  0  0  0
  4 55  1  0  0  0  0
  5 29  1  0  0  0  0
  5 62  1  0  0  0  0
  6 30  1  0  0  0  0
  6 64  1  0  0  0  0
  7 32  2  0  0  0  0
  8 33  2  0  0  0  0
  9 42  1  0  0  0  0
  9 70  1  0  0  0  0
 10 43  1  0  0  0  0
 10 71  1  0  0  0  0
 11 15  1  0  0  0  0
 11 17  1  0  0  0  0
 11 22  1  0  0  0  0
 12 23  1  0  0  0  0
 12 31  1  0  0  0  0
 12 51  1  0  0  0  0
 13 14  1  0  0  0  0
 13 32  1  0  0  0  0
 13 33  1  0  0  0  0
 14 39  1  0  0  0  0
 14 60  1  0  0  0  0
 15 16  1  0  0  0  0
 15 44  1  0  0  0  0
 16 18  1  0  0  0  0
 16 45  1  0  0  0  0
 17 20  1  0  0  0  0
 17 23  2  0  0  0  0
 18 19  1  0  0  0  0
 18 46  1  0  0  0  0
 19 21  1  0  0  0  0
 19 47  1  0  0  0  0
 20 24  1  0  0  0  0
 20 25  2  0  0  0  0
 21 29  1  0  0  0  0
 21 48  1  0  0  0  0
 22 24  2  0  0  0  0
 22 30  1  0  0  0  0
 23 26  1  0  0  0  0
 24 34  1  0  0  0  0
 25 27  1  0  0  0  0
 25 32  1  0  0  0  0
 26 27  2  0  0  0  0
 26 28  1  0  0  0  0
 27 33  1  0  0  0  0
 28 31  1  0  0  0  0
 28 37  2  0  0  0  0
 29 49  1  0  0  0  0
 29 50  1  0  0  0  0
 30 35  2  0  0  0  0
 31 38  2  0  0  0  0
 34 36  2  0  0  0  0
 34 52  1  0  0  0  0
 35 36  1  0  0  0  0
 35 56  1  0  0  0  0
 36 57  1  0  0  0  0
 37 40  1  0  0  0  0
 37 58  1  0  0  0  0
 38 41  1  0  0  0  0
 38 59  1  0  0  0  0
 39 42  1  0  0  0  0
 39 43  1  0  0  0  0
 39 61  1  0  0  0  0
 40 41  2  0  0  0  0
 40 63  1  0  0  0  0
 41 65  1  0  0  0  0
 42 66  1  0  0  0  0
 42 67  1  0  0  0  0
 43 68  1  0  0  0  0
 43 69  1  0  0  0  0
M  END
> <PUBCHEM_COMPOUND_CID>
44340622

> <PUBCHEM_COMPOUND_CANONICALIZED>
1

> <PUBCHEM_CACTVS_COMPLEXITY>
1080

> <PUBCHEM_CACTVS_HBOND_ACCEPTOR>
11

> <PUBCHEM_CACTVS_HBOND_DONOR>
9

> <PUBCHEM_CACTVS_ROTATABLE_BOND>
6

> <PUBCHEM_CACTVS_SUBSKEYS>
AAADceB7vAAAAAAAAAAAAAAAAAAAAWLFgAA0YMEAAAAAAFgB/gAAHgAYCAAADDzhngYwxvPvlgCoAyVyVASCgCQlciAa+aE/fNgLdvLSlZOecQhn1DHb2Qf9+feeyAADQAASECCQAAaAACQgQAAAAAAAAA==

> <PUBCHEM_IUPAC_OPENEYE_NAME>
5-hydroxy-13-[[2-hydroxy-1-(hydroxymethyl)ethyl]amino]-3-[3,4,5-trihydroxy-6-(hydroxymethyl)tetrahydropyran-2-yl]-3,13,23-triazahexacyclo[14.7.0.02,10.04,9.011,15.017,22]tricosa-1,4(9),5,7,10,15,17,19,21-nonaene-12,14-dione

> <PUBCHEM_IUPAC_CAS_NAME>
13-(1,3-dihydroxypropan-2-ylamino)-5-hydroxy-3-[3,4,5-trihydroxy-6-(hydroxymethyl)-2-oxanyl]-3,13,23-triazahexacyclo[14.7.0.02,10.04,9.011,15.017,22]tricosa-1,4(9),5,7,10,15,17,19,21-nonaene-12,14-dione

> <PUBCHEM_IUPAC_NAME_MARKUP>
13-(1,3-dihydroxypropan-2-ylamino)-5-hydroxy-3-[3,4,5-trihydroxy-6-(hydroxymethyl)oxan-2-yl]-3,13,23-triazahexacyclo[14.7.0.0<SUP>2,10</SUP>.0<SUP>4,9</SUP>.0<SUP>11,15</SUP>.0<SUP>17,22</SUP>]tricosa-1,4(9),5,7,10,15,17,19,21-nonaene-12,14-dione

> <PUBCHEM_IUPAC_NAME>
13-(1,3-dihydroxypropan-2-ylamino)-5-hydroxy-3-[3,4,5-trihydroxy-6-(hydroxymethyl)oxan-2-yl]-3,13,23-triazahexacyclo[14.7.0.02,10.04,9.011,15.017,22]tricosa-1,4(9),5,7,10,15,17,19,21-nonaene-12,14-dione

> <PUBCHEM_IUPAC_SYSTEMATIC_NAME>
13-[1,3-bis(oxidanyl)propan-2-ylamino]-3-[6-(hydroxymethyl)-3,4,5-tris(oxidanyl)oxan-2-yl]-5-oxidanyl-3,13,23-triazahexacyclo[14.7.0.02,10.04,9.011,15.017,22]tricosa-1,4(9),5,7,10,15,17,19,21-nonaene-12,14-dione

> <PUBCHEM_IUPAC_TRADITIONAL_NAME>
5-hydroxy-13-[(2-hydroxy-1-methylol-ethyl)amino]-3-(3,4,5-trihydroxy-6-methylol-tetrahydropyran-2-yl)-3,13,23-triazahexacyclo[14.7.0.02,10.04,9.011,15.017,22]tricosa-1,4(9),5,7,10,15,17,19,21-nonaene-12,14-quinone

> <PUBCHEM_IUPAC_INCHI>
InChI=1S/C29H28N4O10/c34-8-11(9-35)31-33-27(41)19-17-12-4-1-2-6-14(12)30-21(17)23-18(20(19)28(33)42)13-5-3-7-15(37)22(13)32(23)29-26(40)25(39)24(38)16(10-36)43-29/h1-7,11,16,24-26,29-31,34-40H,8-10H2

> <PUBCHEM_IUPAC_INCHIKEY>
PFOWCCWHFJQKMN-UHFFFAOYSA-N

> <PUBCHEM_XLOGP3_AA>
-0.3

> <PUBCHEM_EXACT_MASS>
592.18054310

> <PUBCHEM_MOLECULAR_FORMULA>
C29H28N4O10

> <PUBCHEM_MOLECULAR_WEIGHT>
592.6

> <PUBCHEM_SMILES>
C1=CC=C2C(=C1)C3=C4C(=C5C6=C(C(=CC=C6)O)N(C5=C3N2)C7C(C(C(C(O7)CO)O)O)O)C(=O)N(C4=O)NC(CO)CO

> <PUBCHEM_OPENEYE_CAN_SMILES>
C1=CC=C2C(=C1)C3=C4C(=C5C6=C(C(=CC=C6)O)N(C5=C3N2)C7C(C(C(C(O7)CO)O)O)O)C(=O)N(C4=O)NC(CO)CO

> <PUBCHEM_OPENEYE_ISO_SMILES>
C1=CC=C2C(=C1)C3=C4C(=C5C6=C(C(=CC=C6)O)N(C5=C3N2)C7C(C(C(C(O7)CO)O)O)O)C(=O)N(C4=O)NC(CO)CO

> <PUBCHEM_CACTVS_TPSA>
221

> <PUBCHEM_MONOISOTOPIC_WEIGHT>
592.18054310

> <PUBCHEM_TOTAL_CHARGE>
0

> <PUBCHEM_HEAVY_ATOM_COUNT>
43

> <PUBCHEM_ATOM_DEF_STEREO_COUNT>
0

> <PUBCHEM_ATOM_UDEF_STEREO_COUNT>
5

> <PUBCHEM_BOND_DEF_STEREO_COUNT>
0

> <PUBCHEM_BOND_UDEF_STEREO_COUNT>
0

> <PUBCHEM_ISOTOPIC_ATOM_COUNT>
0

> <PUBCHEM_COMPONENT_COUNT>
1

> <PUBCHEM_CACTVS_TAUTO_COUNT>
-1

> <PUBCHEM_COORDINATE_TYPE>
1
5
255

> <PUBCHEM_BONDANNOTATIONS>
15  11  3
11  17  8
11  22  8
12  23  8
12  31  8
17  20  8
17  23  8
16  2  3
20  24  8
20  25  8
21  29  3
22  24  8
22  30  8
23  26  8
24  34  8
25  27  8
26  27  8
26  28  8
28  31  8
28  37  8
18  3  3
30  35  8
31  38  8
34  36  8
35  36  8
37  40  8
38  41  8
19  4  3
40  41  8

$$$$
