49830414
  -OEChem-03202503342D

 71 76  0     0  0  0  0  0  0999 V2000
   10.4851   -2.2092    0.0000 S   0  0  0  0  0  0  0  0  0  0  0  0
    5.0000   -4.8686    0.0000 F   0  0  0  0  0  0  0  0  0  0  0  0
    2.0000   -3.1365    0.0000 F   0  0  0  0  0  0  0  0  0  0  0  0
    7.3517    3.2088    0.0000 O   0  0  0  0  0  0  0  0  0  0  0  0
    3.5000   -2.2705    0.0000 O   0  0  0  0  0  0  0  0  0  0  0  0
    9.5388   -0.9045    0.0000 N   0  0  0  0  0  0  0  0  0  0  0  0
    8.5878   -2.2135    0.0000 N   0  0  0  0  0  0  0  0  0  0  0  0
    3.1301    4.9915    0.0000 N   0  0  0  0  0  0  0  0  0  0  0  0
    7.3006    0.5635    0.0000 N   0  0  0  0  0  0  0  0  0  0  0  0
    6.0135    1.7225    0.0000 N   0  0  0  0  0  0  0  0  0  0  0  0
    5.0000   -3.1365    0.0000 N   0  0  0  0  0  0  0  0  0  0  0  0
    7.6607    2.2577    0.0000 N   0  0  0  0  0  0  0  0  0  0  0  0
    8.5878   -0.5955    0.0000 C   0  0  0  0  0  0  0  0  0  0  0  0
    8.0000   -1.4045    0.0000 C   0  0  0  0  0  0  0  0  0  0  0  0
    9.5388   -1.9045    0.0000 C   0  0  0  0  0  0  0  0  0  0  0  0
    7.0000   -1.4045    0.0000 C   0  0  0  0  0  0  0  0  0  0  0  0
    8.2788    0.3556    0.0000 C   0  0  0  0  0  0  0  0  0  0  0  0
   10.4851   -0.5998    0.0000 C   0  0  0  0  0  0  0  0  0  0  0  0
    4.4173    3.8325    0.0000 C   0  0  0  0  0  0  0  0  0  0  0  0
    3.4391    4.0404    0.0000 C   0  0  0  0  0  0  0  0  0  0  0  0
    6.5000   -2.2705    0.0000 C   0  0  0  0  0  0  0  0  0  0  0  0
    5.7044    2.6735    0.0000 C   0  0  0  0  0  0  0  0  0  0  0  0
    6.5000   -0.5385    0.0000 C   0  0  0  0  0  0  0  0  0  0  0  0
    4.7263    2.8814    0.0000 C   0  0  0  0  0  0  0  0  0  0  0  0
    5.5000   -2.2705    0.0000 C   0  0  0  0  0  0  0  0  0  0  0  0
   11.0687   -1.4045    0.0000 C   0  0  0  0  0  0  0  0  0  0  0  0
    8.9479    1.0987    0.0000 C   0  0  0  0  0  0  0  0  0  0  0  0
    6.9916    1.5146    0.0000 C   0  0  0  0  0  0  0  0  0  0  0  0
    6.3736    3.4167    0.0000 C   0  0  0  0  0  0  0  0  0  0  0  0
    5.0864    4.5756    0.0000 C   0  0  0  0  0  0  0  0  0  0  0  0
    5.5000   -0.5385    0.0000 C   0  0  0  0  0  0  0  0  0  0  0  0
    5.0000   -1.4045    0.0000 C   0  0  0  0  0  0  0  0  0  0  0  0
    6.0646    4.3677    0.0000 C   0  0  0  0  0  0  0  0  0  0  0  0
    8.6389    2.0498    0.0000 C   0  0  0  0  0  0  0  0  0  0  0  0
    2.1520    5.1994    0.0000 C   0  0  0  0  0  0  0  0  0  0  0  0
    3.7992    5.7346    0.0000 C   0  0  0  0  0  0  0  0  0  0  0  0
    4.0000   -3.1365    0.0000 C   0  0  0  0  0  0  0  0  0  0  0  0
    3.5000   -4.0026    0.0000 C   0  0  0  0  0  0  0  0  0  0  0  0
    8.0208    3.9519    0.0000 C   0  0  0  0  0  0  0  0  0  0  0  0
    4.0000   -4.8686    0.0000 C   0  0  0  0  0  0  0  0  0  0  0  0
    2.5000   -4.0026    0.0000 C   0  0  0  0  0  0  0  0  0  0  0  0
    3.5000   -5.7346    0.0000 C   0  0  0  0  0  0  0  0  0  0  0  0
    2.0000   -4.8686    0.0000 C   0  0  0  0  0  0  0  0  0  0  0  0
    2.5000   -5.7346    0.0000 C   0  0  0  0  0  0  0  0  0  0  0  0
   10.6777   -0.0104    0.0000 H   0  0  0  0  0  0  0  0  0  0  0  0
    2.8252    3.9541    0.0000 H   0  0  0  0  0  0  0  0  0  0  0  0
    3.4175    3.4208    0.0000 H   0  0  0  0  0  0  0  0  0  0  0  0
    6.8100   -2.8074    0.0000 H   0  0  0  0  0  0  0  0  0  0  0  0
    6.8100   -0.0015    0.0000 H   0  0  0  0  0  0  0  0  0  0  0  0
    4.3114    2.4207    0.0000 H   0  0  0  0  0  0  0  0  0  0  0  0
   11.6887   -1.4045    0.0000 H   0  0  0  0  0  0  0  0  0  0  0  0
    9.5544    0.9698    0.0000 H   0  0  0  0  0  0  0  0  0  0  0  0
    5.5986    1.2617    0.0000 H   0  0  0  0  0  0  0  0  0  0  0  0
    4.8948    5.1653    0.0000 H   0  0  0  0  0  0  0  0  0  0  0  0
    5.1900   -0.0015    0.0000 H   0  0  0  0  0  0  0  0  0  0  0  0
    4.3800   -1.4045    0.0000 H   0  0  0  0  0  0  0  0  0  0  0  0
    6.4794    4.8285    0.0000 H   0  0  0  0  0  0  0  0  0  0  0  0
    9.0537    2.5105    0.0000 H   0  0  0  0  0  0  0  0  0  0  0  0
    5.3100   -3.6735    0.0000 H   0  0  0  0  0  0  0  0  0  0  0  0
    2.2809    5.8058    0.0000 H   0  0  0  0  0  0  0  0  0  0  0  0
    1.5455    5.3283    0.0000 H   0  0  0  0  0  0  0  0  0  0  0  0
    2.0231    4.5929    0.0000 H   0  0  0  0  0  0  0  0  0  0  0  0
    4.2600    5.3198    0.0000 H   0  0  0  0  0  0  0  0  0  0  0  0
    4.2141    6.1954    0.0000 H   0  0  0  0  0  0  0  0  0  0  0  0
    3.3385    6.1495    0.0000 H   0  0  0  0  0  0  0  0  0  0  0  0
    8.4816    3.5370    0.0000 H   0  0  0  0  0  0  0  0  0  0  0  0
    8.4357    4.4127    0.0000 H   0  0  0  0  0  0  0  0  0  0  0  0
    7.5601    4.3668    0.0000 H   0  0  0  0  0  0  0  0  0  0  0  0
    3.8100   -6.2715    0.0000 H   0  0  0  0  0  0  0  0  0  0  0  0
    1.3800   -4.8686    0.0000 H   0  0  0  0  0  0  0  0  0  0  0  0
    2.1900   -6.2715    0.0000 H   0  0  0  0  0  0  0  0  0  0  0  0
  1 15  1  0  0  0  0
  1 26  1  0  0  0  0
  2 40  1  0  0  0  0
  3 41  1  0  0  0  0
  4 29  1  0  0  0  0
  4 39  1  0  0  0  0
  5 37  2  0  0  0  0
  6 13  1  0  0  0  0
  6 15  1  0  0  0  0
  6 18  1  0  0  0  0
  7 14  1  0  0  0  0
  7 15  2  0  0  0  0
  8 20  1  0  0  0  0
  8 35  1  0  0  0  0
  8 36  1  0  0  0  0
  9 17  2  0  0  0  0
  9 28  1  0  0  0  0
 10 22  1  0  0  0  0
 10 28  1  0  0  0  0
 10 53  1  0  0  0  0
 11 25  1  0  0  0  0
 11 37  1  0  0  0  0
 11 59  1  0  0  0  0
 12 28  2  0  0  0  0
 12 34  1  0  0  0  0
 13 14  2  0  0  0  0
 13 17  1  0  0  0  0
 14 16  1  0  0  0  0
 16 21  2  0  0  0  0
 16 23  1  0  0  0  0
 17 27  1  0  0  0  0
 18 26  2  0  0  0  0
 18 45  1  0  0  0  0
 19 20  1  0  0  0  0
 19 24  2  0  0  0  0
 19 30  1  0  0  0  0
 20 46  1  0  0  0  0
 20 47  1  0  0  0  0
 21 25  1  0  0  0  0
 21 48  1  0  0  0  0
 22 24  1  0  0  0  0
 22 29  2  0  0  0  0
 23 31  2  0  0  0  0
 23 49  1  0  0  0  0
 24 50  1  0  0  0  0
 25 32  2  0  0  0  0
 26 51  1  0  0  0  0
 27 34  2  0  0  0  0
 27 52  1  0  0  0  0
 29 33  1  0  0  0  0
 30 33  2  0  0  0  0
 30 54  1  0  0  0  0
 31 32  1  0  0  0  0
 31 55  1  0  0  0  0
 32 56  1  0  0  0  0
 33 57  1  0  0  0  0
 34 58  1  0  0  0  0
 35 60  1  0  0  0  0
 35 61  1  0  0  0  0
 35 62  1  0  0  0  0
 36 63  1  0  0  0  0
 36 64  1  0  0  0  0
 36 65  1  0  0  0  0
 37 38  1  0  0  0  0
 38 40  2  0  0  0  0
 38 41  1  0  0  0  0
 39 66  1  0  0  0  0
 39 67  1  0  0  0  0
 39 68  1  0  0  0  0
 40 42  1  0  0  0  0
 41 43  2  0  0  0  0
 42 44  2  0  0  0  0
 42 69  1  0  0  0  0
 43 44  1  0  0  0  0
 43 70  1  0  0  0  0
 44 71  1  0  0  0  0
M  END
> <PUBCHEM_COMPOUND_CID>
49830414

> <PUBCHEM_COMPOUND_CANONICALIZED>
1

> <PUBCHEM_CACTVS_COMPLEXITY>
944

> <PUBCHEM_CACTVS_HBOND_ACCEPTOR>
10

> <PUBCHEM_CACTVS_HBOND_DONOR>
2

> <PUBCHEM_CACTVS_ROTATABLE_BOND>
9

> <PUBCHEM_CACTVS_SUBSKEYS>
AAADceB/sYBAAAAAAAAAAAAAAAAAAWLAAAA8YMEAAAAWAAAB/AAAHwQQAAAADAzF3g6/15fMHAisAzV3dACC+K11OrhJ2C0/fNiObvLE/duVNShs1BPY6SeY2MKOIAAAQAAAEABAAACAAAAgAAAAAAAAAA==

> <PUBCHEM_IUPAC_OPENEYE_NAME>
N-[3-[5-[2-[5-[(dimethylamino)methyl]-2-methoxy-anilino]pyrimidin-4-yl]imidazo[2,1-b]thiazol-6-yl]phenyl]-2,6-difluoro-benzamide

> <PUBCHEM_IUPAC_CAS_NAME>
N-[3-[5-[2-[5-[(dimethylamino)methyl]-2-methoxyanilino]-4-pyrimidinyl]-6-imidazo[2,1-b]thiazolyl]phenyl]-2,6-difluorobenzamide

> <PUBCHEM_IUPAC_NAME_MARKUP>
<I>N</I>-[3-[5-[2-[5-[(dimethylamino)methyl]-2-methoxyanilino]pyrimidin-4-yl]imidazo[2,1-b][1,3]thiazol-6-yl]phenyl]-2,6-difluorobenzamide

> <PUBCHEM_IUPAC_NAME>
N-[3-[5-[2-[5-[(dimethylamino)methyl]-2-methoxyanilino]pyrimidin-4-yl]imidazo[2,1-b][1,3]thiazol-6-yl]phenyl]-2,6-difluorobenzamide

> <PUBCHEM_IUPAC_SYSTEMATIC_NAME>
N-[3-[5-[2-[[5-[(dimethylamino)methyl]-2-methoxy-phenyl]amino]pyrimidin-4-yl]imidazo[2,1-b][1,3]thiazol-6-yl]phenyl]-2,6-bis(fluoranyl)benzamide

> <PUBCHEM_IUPAC_TRADITIONAL_NAME>
N-[3-[5-[2-[5-[(dimethylamino)methyl]-2-methoxy-anilino]pyrimidin-4-yl]imidazo[2,1-b]thiazol-6-yl]phenyl]-2,6-difluoro-benzamide

> <PUBCHEM_IUPAC_INCHI>
InChI=1S/C32H27F2N7O2S/c1-40(2)18-19-10-11-26(43-3)25(16-19)38-31-35-13-12-24(37-31)29-28(39-32-41(29)14-15-44-32)20-6-4-7-21(17-20)36-30(42)27-22(33)8-5-9-23(27)34/h4-17H,18H2,1-3H3,(H,36,42)(H,35,37,38)

> <PUBCHEM_IUPAC_INCHIKEY>
XMGFTZYNTYNOOJ-UHFFFAOYSA-N

> <PUBCHEM_XLOGP3_AA>
6.2

> <PUBCHEM_EXACT_MASS>
611.19150063

> <PUBCHEM_MOLECULAR_FORMULA>
C32H27F2N7O2S

> <PUBCHEM_MOLECULAR_WEIGHT>
611.7

> <PUBCHEM_SMILES>
CN(C)CC1=CC(=C(C=C1)OC)NC2=NC=CC(=N2)C3=C(N=C4N3C=CS4)C5=CC(=CC=C5)NC(=O)C6=C(C=CC=C6F)F

> <PUBCHEM_OPENEYE_CAN_SMILES>
CN(C)CC1=CC(=C(C=C1)OC)NC2=NC=CC(=N2)C3=C(N=C4N3C=CS4)C5=CC(=CC=C5)NC(=O)C6=C(C=CC=C6F)F

> <PUBCHEM_OPENEYE_ISO_SMILES>
CN(C)CC1=CC(=C(C=C1)OC)NC2=NC=CC(=N2)C3=C(N=C4N3C=CS4)C5=CC(=CC=C5)NC(=O)C6=C(C=CC=C6F)F

> <PUBCHEM_CACTVS_TPSA>
125

> <PUBCHEM_MONOISOTOPIC_WEIGHT>
611.19150063

> <PUBCHEM_TOTAL_CHARGE>
0

> <PUBCHEM_HEAVY_ATOM_COUNT>
44

> <PUBCHEM_ATOM_DEF_STEREO_COUNT>
0

> <PUBCHEM_ATOM_UDEF_STEREO_COUNT>
0

> <PUBCHEM_BOND_DEF_STEREO_COUNT>
0

> <PUBCHEM_BOND_UDEF_STEREO_COUNT>
0

> <PUBCHEM_ISOTOPIC_ATOM_COUNT>
0

> <PUBCHEM_COMPONENT_COUNT>
1

> <PUBCHEM_CACTVS_TAUTO_COUNT>
-1

> <PUBCHEM_COORDINATE_TYPE>
1
5
255

> <PUBCHEM_BONDANNOTATIONS>
1  15  8
1  26  8
12  28  8
12  34  8
13  14  8
16  21  8
16  23  8
17  27  8
18  26  8
19  24  8
19  30  8
21  25  8
22  24  8
22  29  8
23  31  8
25  32  8
27  34  8
29  33  8
30  33  8
31  32  8
38  40  8
38  41  8
40  42  8
41  43  8
42  44  8
43  44  8
6  13  8
6  15  8
6  18  8
7  14  8
7  15  8
9  17  8
9  28  8

$$$$
