71553152
  -OEChem-03202504552D

 58 61  0     1  0  0  0  0  0999 V2000
    8.0622   -4.3850    0.0000 Cl  0  0  0  0  0  0  0  0  0  0  0  0
   11.5263   -4.3850    0.0000 Cl  0  0  0  0  0  0  0  0  0  0  0  0
   10.5109    2.4514    0.0000 O   0  0  0  0  0  0  0  0  0  0  0  0
    8.2896    3.7786    0.0000 O   0  0  0  0  0  0  0  0  0  0  0  0
    6.3301    1.6150    0.0000 O   0  0  0  0  0  0  0  0  0  0  0  0
    2.8660    1.6150    0.0000 N   0  0  0  0  0  0  0  0  0  0  0  0
    5.4641    0.1149    0.0000 N   0  0  0  0  0  0  0  0  0  0  0  0
    8.0622    1.6150    0.0000 N   0  0  0  0  0  0  0  0  0  0  0  0
    8.9282    0.1149    0.0000 N   0  0  0  0  0  0  0  0  0  0  0  0
    8.0622   -1.3850    0.0000 N   0  0  0  0  0  0  0  0  0  0  0  0
    9.7942   -1.3850    0.0000 N   0  0  0  0  0  0  0  0  0  0  0  0
    4.5981    0.6149    0.0000 C   0  0  0  0  0  0  0  0  0  0  0  0
    4.5981    1.6150    0.0000 C   0  0  0  0  0  0  0  0  0  0  0  0
    3.7320    0.1149    0.0000 C   0  0  0  0  0  0  0  0  0  0  0  0
    3.7320    2.1150    0.0000 C   0  0  0  0  0  0  0  0  0  0  0  0
    2.8660    0.6149    0.0000 C   0  0  0  0  0  0  0  0  0  0  0  0
    8.9282    2.1150    0.0000 C   0  0  1  0  0  0  0  0  0  0  0  0
    9.0327    3.1095    0.0000 C   0  0  1  0  0  0  0  0  0  0  0  0
    9.8418    1.7082    0.0000 C   0  0  0  0  0  0  0  0  0  0  0  0
   10.0109    3.3174    0.0000 C   0  0  0  0  0  0  0  0  0  0  0  0
    2.0000    2.1150    0.0000 C   0  0  0  0  0  0  0  0  0  0  0  0
    6.3301    0.6149    0.0000 C   0  0  0  0  0  0  0  0  0  0  0  0
    8.0622    0.6149    0.0000 C   0  0  0  0  0  0  0  0  0  0  0  0
    7.1962    0.1149    0.0000 C   0  0  0  0  0  0  0  0  0  0  0  0
    7.1962   -0.8851    0.0000 C   0  0  0  0  0  0  0  0  0  0  0  0
    8.9282   -0.8851    0.0000 C   0  0  0  0  0  0  0  0  0  0  0  0
    9.7942   -2.3850    0.0000 C   0  0  0  0  0  0  0  0  0  0  0  0
   10.6603   -2.8850    0.0000 C   0  0  0  0  0  0  0  0  0  0  0  0
    8.9282   -2.8850    0.0000 C   0  0  0  0  0  0  0  0  0  0  0  0
    8.9282   -3.8850    0.0000 C   0  0  0  0  0  0  0  0  0  0  0  0
   10.6603   -3.8850    0.0000 C   0  0  0  0  0  0  0  0  0  0  0  0
    9.7942   -4.3850    0.0000 C   0  0  0  0  0  0  0  0  0  0  0  0
    4.5981   -0.0051    0.0000 H   0  0  0  0  0  0  0  0  0  0  0  0
    5.2087    1.5073    0.0000 H   0  0  0  0  0  0  0  0  0  0  0  0
    4.8101    2.1976    0.0000 H   0  0  0  0  0  0  0  0  0  0  0  0
    3.3335   -0.3600    0.0000 H   0  0  0  0  0  0  0  0  0  0  0  0
    4.1306   -0.3600    0.0000 H   0  0  0  0  0  0  0  0  0  0  0  0
    4.1306    2.5899    0.0000 H   0  0  0  0  0  0  0  0  0  0  0  0
    3.3335    2.5899    0.0000 H   0  0  0  0  0  0  0  0  0  0  0  0
    2.2554    0.7226    0.0000 H   0  0  0  0  0  0  0  0  0  0  0  0
    2.6540    0.0323    0.0000 H   0  0  0  0  0  0  0  0  0  0  0  0
    8.9606    1.4958    0.0000 H   0  0  0  0  0  0  0  0  0  0  0  0
    9.1932    3.7083    0.0000 H   0  0  0  0  0  0  0  0  0  0  0  0
    5.4641   -0.5051    0.0000 H   0  0  0  0  0  0  0  0  0  0  0  0
    9.5318    1.1713    0.0000 H   0  0  0  0  0  0  0  0  0  0  0  0
   10.3433    1.3438    0.0000 H   0  0  0  0  0  0  0  0  0  0  0  0
   10.5773    3.5696    0.0000 H   0  0  0  0  0  0  0  0  0  0  0  0
    9.8193    3.9070    0.0000 H   0  0  0  0  0  0  0  0  0  0  0  0
    2.3100    2.6519    0.0000 H   0  0  0  0  0  0  0  0  0  0  0  0
    1.4631    2.4250    0.0000 H   0  0  0  0  0  0  0  0  0  0  0  0
    1.6900    1.5780    0.0000 H   0  0  0  0  0  0  0  0  0  0  0  0
    7.5252    1.9250    0.0000 H   0  0  0  0  0  0  0  0  0  0  0  0
    8.4185    4.3850    0.0000 H   0  0  0  0  0  0  0  0  0  0  0  0
    6.6592   -1.1950    0.0000 H   0  0  0  0  0  0  0  0  0  0  0  0
   10.3312   -1.0750    0.0000 H   0  0  0  0  0  0  0  0  0  0  0  0
   11.1972   -2.5750    0.0000 H   0  0  0  0  0  0  0  0  0  0  0  0
    8.3913   -2.5750    0.0000 H   0  0  0  0  0  0  0  0  0  0  0  0
    9.7942   -5.0050    0.0000 H   0  0  0  0  0  0  0  0  0  0  0  0
  1 30  1  0  0  0  0
  2 31  1  0  0  0  0
  3 19  1  0  0  0  0
  3 20  1  0  0  0  0
 18  4  1  6  0  0  0
  4 53  1  0  0  0  0
  5 22  2  0  0  0  0
  6 15  1  0  0  0  0
  6 16  1  0  0  0  0
  6 21  1  0  0  0  0
  7 12  1  0  0  0  0
  7 22  1  0  0  0  0
  7 44  1  0  0  0  0
 17  8  1  1  0  0  0
  8 23  1  0  0  0  0
  8 52  1  0  0  0  0
  9 23  2  0  0  0  0
  9 26  1  0  0  0  0
 10 25  1  0  0  0  0
 10 26  2  0  0  0  0
 11 26  1  0  0  0  0
 11 27  1  0  0  0  0
 11 55  1  0  0  0  0
 12 13  1  0  0  0  0
 12 14  1  0  0  0  0
 12 33  1  0  0  0  0
 13 15  1  0  0  0  0
 13 34  1  0  0  0  0
 13 35  1  0  0  0  0
 14 16  1  0  0  0  0
 14 36  1  0  0  0  0
 14 37  1  0  0  0  0
 15 38  1  0  0  0  0
 15 39  1  0  0  0  0
 16 40  1  0  0  0  0
 16 41  1  0  0  0  0
 17 18  1  0  0  0  0
 17 19  1  0  0  0  0
 17 42  1  0  0  0  0
 18 20  1  0  0  0  0
 18 43  1  0  0  0  0
 19 45  1  0  0  0  0
 19 46  1  0  0  0  0
 20 47  1  0  0  0  0
 20 48  1  0  0  0  0
 21 49  1  0  0  0  0
 21 50  1  0  0  0  0
 21 51  1  0  0  0  0
 22 24  1  0  0  0  0
 23 24  1  0  0  0  0
 24 25  2  0  0  0  0
 25 54  1  0  0  0  0
 27 28  2  0  0  0  0
 27 29  1  0  0  0  0
 28 31  1  0  0  0  0
 28 56  1  0  0  0  0
 29 30  2  0  0  0  0
 29 57  1  0  0  0  0
 30 32  1  0  0  0  0
 31 32  2  0  0  0  0
 32 58  1  0  0  0  0
M  END
> <PUBCHEM_COMPOUND_CID>
71553152

> <PUBCHEM_COMPOUND_CANONICALIZED>
1

> <PUBCHEM_CACTVS_COMPLEXITY>
616

> <PUBCHEM_CACTVS_HBOND_ACCEPTOR>
8

> <PUBCHEM_CACTVS_HBOND_DONOR>
4

> <PUBCHEM_CACTVS_ROTATABLE_BOND>
6

> <PUBCHEM_CACTVS_SUBSKEYS>
AAADceB7sAAGAAAAAAAAAAAAAAAAASAAAAA8WIAAAAAAAAABwAAAHgIQCAAADD7hmiY/8JfIFgCoAjd3dACCgCk1B6AB2KEoZtiLOKrB29GHZIhvlgLbyOcQAAAAAAAAAAKAAAAAAAAABQAAAAAAAAAAAA==

> <PUBCHEM_IUPAC_OPENEYE_NAME>
2-(3,5-dichloroanilino)-4-[[(3R,4S)-4-hydroxytetrahydrofuran-3-yl]amino]-N-(1-methyl-4-piperidyl)pyrimidine-5-carboxamide

> <PUBCHEM_IUPAC_CAS_NAME>
2-(3,5-dichloroanilino)-4-[[(3R,4S)-4-hydroxy-3-oxolanyl]amino]-N-(1-methyl-4-piperidinyl)-5-pyrimidinecarboxamide

> <PUBCHEM_IUPAC_NAME_MARKUP>
2-(3,5-dichloroanilino)-4-[[(3<I>R</I>,4<I>S</I>)-4-hydroxyoxolan-3-yl]amino]-<I>N</I>-(1-methylpiperidin-4-yl)pyrimidine-5-carboxamide

> <PUBCHEM_IUPAC_NAME>
2-(3,5-dichloroanilino)-4-[[(3R,4S)-4-hydroxyoxolan-3-yl]amino]-N-(1-methylpiperidin-4-yl)pyrimidine-5-carboxamide

> <PUBCHEM_IUPAC_SYSTEMATIC_NAME>
2-[[3,5-bis(chloranyl)phenyl]amino]-N-(1-methylpiperidin-4-yl)-4-[[(3R,4S)-4-oxidanyloxolan-3-yl]amino]pyrimidine-5-carboxamide

> <PUBCHEM_IUPAC_TRADITIONAL_NAME>
2-(3,5-dichloroanilino)-4-[[(3R,4S)-4-hydroxytetrahydrofuran-3-yl]amino]-N-(1-methyl-4-piperidyl)pyrimidine-5-carboxamide

> <PUBCHEM_IUPAC_INCHI>
InChI=1S/C21H26Cl2N6O3/c1-29-4-2-14(3-5-29)25-20(31)16-9-24-21(26-15-7-12(22)6-13(23)8-15)28-19(16)27-17-10-32-11-18(17)30/h6-9,14,17-18,30H,2-5,10-11H2,1H3,(H,25,31)(H2,24,26,27,28)/t17-,18-/m1/s1

> <PUBCHEM_IUPAC_INCHIKEY>
PIKLKDCPFVVYDK-QZTJIDSGSA-N

> <PUBCHEM_XLOGP3_AA>
3.1

> <PUBCHEM_EXACT_MASS>
480.1443441

> <PUBCHEM_MOLECULAR_FORMULA>
C21H26Cl2N6O3

> <PUBCHEM_MOLECULAR_WEIGHT>
481.4

> <PUBCHEM_SMILES>
CN1CCC(CC1)NC(=O)C2=CN=C(N=C2N[C@@H]3COC[C@H]3O)NC4=CC(=CC(=C4)Cl)Cl

> <PUBCHEM_OPENEYE_CAN_SMILES>
CN1CCC(CC1)NC(=O)C2=CN=C(N=C2NC3COCC3O)NC4=CC(=CC(=C4)Cl)Cl

> <PUBCHEM_OPENEYE_ISO_SMILES>
CN1CCC(CC1)NC(=O)C2=CN=C(N=C2N[C@@H]3COC[C@H]3O)NC4=CC(=CC(=C4)Cl)Cl

> <PUBCHEM_CACTVS_TPSA>
112

> <PUBCHEM_MONOISOTOPIC_WEIGHT>
480.1443441

> <PUBCHEM_TOTAL_CHARGE>
0

> <PUBCHEM_HEAVY_ATOM_COUNT>
32

> <PUBCHEM_ATOM_DEF_STEREO_COUNT>
2

> <PUBCHEM_ATOM_UDEF_STEREO_COUNT>
0

> <PUBCHEM_BOND_DEF_STEREO_COUNT>
0

> <PUBCHEM_BOND_UDEF_STEREO_COUNT>
0

> <PUBCHEM_ISOTOPIC_ATOM_COUNT>
0

> <PUBCHEM_COMPONENT_COUNT>
1

> <PUBCHEM_CACTVS_TAUTO_COUNT>
-1

> <PUBCHEM_COORDINATE_TYPE>
1
5
255

> <PUBCHEM_BONDANNOTATIONS>
10  25  8
10  26  8
23  24  8
24  25  8
27  28  8
27  29  8
28  31  8
29  30  8
30  32  8
31  32  8
18  4  6
17  8  5
9  23  8
9  26  8

$$$$
