49831048
  -OEChem-03202502552D

 28 30  0     0  0  0  0  0  0999 V2000
    8.0622    0.2500    0.0000 N   0  0  0  0  0  0  0  0  0  0  0  0
    7.1962   -0.2500    0.0000 N   0  0  0  0  0  0  0  0  0  0  0  0
    9.0084    1.5547    0.0000 N   0  0  0  0  0  0  0  0  0  0  0  0
    8.0622    1.2500    0.0000 C   0  0  0  0  0  0  0  0  0  0  0  0
    6.3301    0.2500    0.0000 C   0  0  0  0  0  0  0  0  0  0  0  0
    7.1962    1.7500    0.0000 C   0  0  0  0  0  0  0  0  0  0  0  0
    6.3301    1.2500    0.0000 C   0  0  0  0  0  0  0  0  0  0  0  0
    9.0084   -0.0547    0.0000 C   0  0  0  0  0  0  0  0  0  0  0  0
    5.4641   -0.2500    0.0000 C   0  0  0  0  0  0  0  0  0  0  0  0
    3.7320   -0.2500    0.0000 C   0  0  0  0  0  0  0  0  0  0  0  0
    4.5981    0.2500    0.0000 C   0  0  0  0  0  0  0  0  0  0  0  0
    9.5920    0.7500    0.0000 C   0  0  0  0  0  0  0  0  0  0  0  0
    2.8660    0.2500    0.0000 C   0  0  0  0  0  0  0  0  0  0  0  0
    3.7320   -1.2500    0.0000 C   0  0  0  0  0  0  0  0  0  0  0  0
    2.0000   -0.2500    0.0000 C   0  0  0  0  0  0  0  0  0  0  0  0
    2.8660   -1.7500    0.0000 C   0  0  0  0  0  0  0  0  0  0  0  0
    2.0000   -1.2500    0.0000 C   0  0  0  0  0  0  0  0  0  0  0  0
    7.1962    2.3700    0.0000 H   0  0  0  0  0  0  0  0  0  0  0  0
    5.7932    1.5600    0.0000 H   0  0  0  0  0  0  0  0  0  0  0  0
    9.2010   -0.6441    0.0000 H   0  0  0  0  0  0  0  0  0  0  0  0
    5.4641   -0.8700    0.0000 H   0  0  0  0  0  0  0  0  0  0  0  0
    4.5981    0.8700    0.0000 H   0  0  0  0  0  0  0  0  0  0  0  0
   10.2120    0.7500    0.0000 H   0  0  0  0  0  0  0  0  0  0  0  0
    2.8660    0.8700    0.0000 H   0  0  0  0  0  0  0  0  0  0  0  0
    4.2690   -1.5600    0.0000 H   0  0  0  0  0  0  0  0  0  0  0  0
    1.4631    0.0600    0.0000 H   0  0  0  0  0  0  0  0  0  0  0  0
    2.8660   -2.3700    0.0000 H   0  0  0  0  0  0  0  0  0  0  0  0
    1.4631   -1.5600    0.0000 H   0  0  0  0  0  0  0  0  0  0  0  0
  1  2  1  0  0  0  0
  1  4  1  0  0  0  0
  1  8  1  0  0  0  0
  2  5  2  0  0  0  0
  3  4  2  0  0  0  0
  3 12  1  0  0  0  0
  4  6  1  0  0  0  0
  5  7  1  0  0  0  0
  5  9  1  0  0  0  0
  6  7  2  0  0  0  0
  6 18  1  0  0  0  0
  7 19  1  0  0  0  0
  8 12  2  0  0  0  0
  8 20  1  0  0  0  0
  9 11  2  3  0  0  0
  9 21  1  0  0  0  0
 10 11  1  0  0  0  0
 10 13  2  0  0  0  0
 10 14  1  0  0  0  0
 11 22  1  0  0  0  0
 12 23  1  0  0  0  0
 13 15  1  0  0  0  0
 13 24  1  0  0  0  0
 14 16  2  0  0  0  0
 14 25  1  0  0  0  0
 15 17  2  0  0  0  0
 15 26  1  0  0  0  0
 16 17  1  0  0  0  0
 16 27  1  0  0  0  0
 17 28  1  0  0  0  0
M  END
> <PUBCHEM_COMPOUND_CID>
49831048

> <PUBCHEM_COMPOUND_CANONICALIZED>
1

> <PUBCHEM_CACTVS_COMPLEXITY>
271

> <PUBCHEM_CACTVS_HBOND_ACCEPTOR>
2

> <PUBCHEM_CACTVS_HBOND_DONOR>
0

> <PUBCHEM_CACTVS_ROTATABLE_BOND>
2

> <PUBCHEM_CACTVS_SUBSKEYS>
AAADccBzAAAAAAAAAAAAAAAAAAAAAWAAAAA8QAAAAAAAAFgB8AAAHAAIAAAADAjBHwQ9sJ4IEACiAzZnZACShC8xkqAd2CA4dJiIaOLAmZGUoAhoiALIyCcQgAAOAAAAAAAAAAAAAAAAAAAAAAAAAAAAAA==

> <PUBCHEM_IUPAC_OPENEYE_NAME>
6-styrylimidazo[1,2-b]pyridazine

> <PUBCHEM_IUPAC_CAS_NAME>
6-(2-phenylethenyl)imidazo[1,2-b]pyridazine

> <PUBCHEM_IUPAC_NAME_MARKUP>
6-(2-phenylethenyl)imidazo[1,2-b]pyridazine

> <PUBCHEM_IUPAC_NAME>
6-(2-phenylethenyl)imidazo[1,2-b]pyridazine

> <PUBCHEM_IUPAC_SYSTEMATIC_NAME>
6-(2-phenylethenyl)imidazo[1,2-b]pyridazine

> <PUBCHEM_IUPAC_TRADITIONAL_NAME>
6-styrylimidazo[1,2-b]pyridazine

> <PUBCHEM_IUPAC_INCHI>
InChI=1S/C14H11N3/c1-2-4-12(5-3-1)6-7-13-8-9-14-15-10-11-17(14)16-13/h1-11H

> <PUBCHEM_IUPAC_INCHIKEY>
GIMMCSLNUXYLSO-UHFFFAOYSA-N

> <PUBCHEM_XLOGP3_AA>
2.6

> <PUBCHEM_EXACT_MASS>
221.095297364

> <PUBCHEM_MOLECULAR_FORMULA>
C14H11N3

> <PUBCHEM_MOLECULAR_WEIGHT>
221.26

> <PUBCHEM_SMILES>
C1=CC=C(C=C1)C=CC2=NN3C=CN=C3C=C2

> <PUBCHEM_OPENEYE_CAN_SMILES>
C1=CC=C(C=C1)C=CC2=NN3C=CN=C3C=C2

> <PUBCHEM_OPENEYE_ISO_SMILES>
C1=CC=C(C=C1)C=CC2=NN3C=CN=C3C=C2

> <PUBCHEM_CACTVS_TPSA>
30.2

> <PUBCHEM_MONOISOTOPIC_WEIGHT>
221.095297364

> <PUBCHEM_TOTAL_CHARGE>
0

> <PUBCHEM_HEAVY_ATOM_COUNT>
17

> <PUBCHEM_ATOM_DEF_STEREO_COUNT>
0

> <PUBCHEM_ATOM_UDEF_STEREO_COUNT>
0

> <PUBCHEM_BOND_DEF_STEREO_COUNT>
0

> <PUBCHEM_BOND_UDEF_STEREO_COUNT>
1

> <PUBCHEM_ISOTOPIC_ATOM_COUNT>
0

> <PUBCHEM_COMPONENT_COUNT>
1

> <PUBCHEM_CACTVS_TAUTO_COUNT>
-1

> <PUBCHEM_COORDINATE_TYPE>
1
5
255

> <PUBCHEM_BONDANNOTATIONS>
1  2  8
1  4  8
1  8  8
10  13  8
10  14  8
13  15  8
14  16  8
15  17  8
16  17  8
2  5  8
3  12  8
3  4  8
4  6  8
5  7  8
6  7  8
8  12  8
9  11  1

$$$$
