49830758
  -OEChem-03202504182D

 45 48  0     0  0  0  0  0  0999 V2000
    7.0836   -0.9038    0.0000 S   0  0  0  0  0  0  0  0  0  0  0  0
    5.0000    0.7670    0.0000 O   0  0  0  0  0  0  0  0  0  0  0  0
    5.0000   -0.9651    0.0000 N   0  0  0  0  0  0  0  0  0  0  0  0
    9.5687   -0.0990    0.0000 N   0  0  0  0  0  0  0  0  0  0  0  0
    8.9809   -0.9081    0.0000 N   0  0  0  0  0  0  0  0  0  0  0  0
    3.5000   -1.8311    0.0000 C   0  0  0  0  0  0  0  0  0  0  0  0
    2.5000   -1.8311    0.0000 C   0  0  0  0  0  0  0  0  0  0  0  0
    4.0000   -2.6971    0.0000 C   0  0  0  0  0  0  0  0  0  0  0  0
    2.0000   -2.6971    0.0000 C   0  0  0  0  0  0  0  0  0  0  0  0
    3.5000   -3.5631    0.0000 C   0  0  0  0  0  0  0  0  0  0  0  0
    2.5000   -3.5631    0.0000 C   0  0  0  0  0  0  0  0  0  0  0  0
    4.0000   -0.9651    0.0000 C   0  0  0  0  0  0  0  0  0  0  0  0
    5.5000   -0.0990    0.0000 C   0  0  0  0  0  0  0  0  0  0  0  0
    6.5000   -0.0990    0.0000 C   0  0  0  0  0  0  0  0  0  0  0  0
    8.0298    0.4010    0.0000 C   0  0  0  0  0  0  0  0  0  0  0  0
    7.0836    0.7057    0.0000 C   0  0  0  0  0  0  0  0  0  0  0  0
    8.0298   -0.5990    0.0000 C   0  0  0  0  0  0  0  0  0  0  0  0
    8.9809    0.7100    0.0000 C   0  0  0  0  0  0  0  0  0  0  0  0
    9.2899    1.6610    0.0000 C   0  0  0  0  0  0  0  0  0  0  0  0
   10.2681    1.8689    0.0000 C   0  0  0  0  0  0  0  0  0  0  0  0
    8.6208    2.4042    0.0000 C   0  0  0  0  0  0  0  0  0  0  0  0
   10.5771    2.8200    0.0000 C   0  0  0  0  0  0  0  0  0  0  0  0
    8.9298    3.3552    0.0000 C   0  0  0  0  0  0  0  0  0  0  0  0
    9.9079    3.5631    0.0000 C   0  0  0  0  0  0  0  0  0  0  0  0
    4.1200   -1.8311    0.0000 H   0  0  0  0  0  0  0  0  0  0  0  0
    2.6077   -1.2205    0.0000 H   0  0  0  0  0  0  0  0  0  0  0  0
    1.9174   -1.6190    0.0000 H   0  0  0  0  0  0  0  0  0  0  0  0
    4.4750   -3.0956    0.0000 H   0  0  0  0  0  0  0  0  0  0  0  0
    4.4750   -2.2986    0.0000 H   0  0  0  0  0  0  0  0  0  0  0  0
    1.5250   -2.2986    0.0000 H   0  0  0  0  0  0  0  0  0  0  0  0
    1.5250   -3.0956    0.0000 H   0  0  0  0  0  0  0  0  0  0  0  0
    3.3923   -4.1737    0.0000 H   0  0  0  0  0  0  0  0  0  0  0  0
    4.0826   -3.7752    0.0000 H   0  0  0  0  0  0  0  0  0  0  0  0
    1.9174   -3.7752    0.0000 H   0  0  0  0  0  0  0  0  0  0  0  0
    2.6077   -4.1737    0.0000 H   0  0  0  0  0  0  0  0  0  0  0  0
    4.1077   -0.3545    0.0000 H   0  0  0  0  0  0  0  0  0  0  0  0
    3.4174   -0.7530    0.0000 H   0  0  0  0  0  0  0  0  0  0  0  0
    5.3100   -1.5020    0.0000 H   0  0  0  0  0  0  0  0  0  0  0  0
    6.8910    1.2950    0.0000 H   0  0  0  0  0  0  0  0  0  0  0  0
   10.1887   -0.0990    0.0000 H   0  0  0  0  0  0  0  0  0  0  0  0
   10.6829    1.4082    0.0000 H   0  0  0  0  0  0  0  0  0  0  0  0
    8.0143    2.2753    0.0000 H   0  0  0  0  0  0  0  0  0  0  0  0
   11.1835    2.9489    0.0000 H   0  0  0  0  0  0  0  0  0  0  0  0
    8.5149    3.8160    0.0000 H   0  0  0  0  0  0  0  0  0  0  0  0
   10.0995    4.1528    0.0000 H   0  0  0  0  0  0  0  0  0  0  0  0
  1 14  1  0  0  0  0
  1 17  1  0  0  0  0
  2 13  2  0  0  0  0
  3 12  1  0  0  0  0
  3 13  1  0  0  0  0
  3 38  1  0  0  0  0
  4  5  1  0  0  0  0
  4 18  1  0  0  0  0
  4 40  1  0  0  0  0
  5 17  2  0  0  0  0
  6  7  1  0  0  0  0
  6  8  1  0  0  0  0
  6 12  1  0  0  0  0
  6 25  1  0  0  0  0
  7  9  1  0  0  0  0
  7 26  1  0  0  0  0
  7 27  1  0  0  0  0
  8 10  1  0  0  0  0
  8 28  1  0  0  0  0
  8 29  1  0  0  0  0
  9 11  1  0  0  0  0
  9 30  1  0  0  0  0
  9 31  1  0  0  0  0
 10 11  1  0  0  0  0
 10 32  1  0  0  0  0
 10 33  1  0  0  0  0
 11 34  1  0  0  0  0
 11 35  1  0  0  0  0
 12 36  1  0  0  0  0
 12 37  1  0  0  0  0
 13 14  1  0  0  0  0
 14 16  2  0  0  0  0
 15 16  1  0  0  0  0
 15 17  1  0  0  0  0
 15 18  2  0  0  0  0
 16 39  1  0  0  0  0
 18 19  1  0  0  0  0
 19 20  2  0  0  0  0
 19 21  1  0  0  0  0
 20 22  1  0  0  0  0
 20 41  1  0  0  0  0
 21 23  2  0  0  0  0
 21 42  1  0  0  0  0
 22 24  2  0  0  0  0
 22 43  1  0  0  0  0
 23 24  1  0  0  0  0
 23 44  1  0  0  0  0
 24 45  1  0  0  0  0
M  END
> <PUBCHEM_COMPOUND_CID>
49830758

> <PUBCHEM_COMPOUND_CANONICALIZED>
1

> <PUBCHEM_CACTVS_COMPLEXITY>
434

> <PUBCHEM_CACTVS_HBOND_ACCEPTOR>
3

> <PUBCHEM_CACTVS_HBOND_DONOR>
2

> <PUBCHEM_CACTVS_ROTATABLE_BOND>
4

> <PUBCHEM_CACTVS_SUBSKEYS>
AAADceB7IABAAAAAAAAAAAAAAAAAAWJAAAAwYAAAAAAWAAAB/AAAHgQYAAAADQjB3gQwgdLjAAiuAyVyUACTBIBkCBBYubkoRNgIILKg1dGEpQxgngCoyYcYicCeAAAAAAAAAAAAAAAAAAAAAAAAAAAAAA==

> <PUBCHEM_IUPAC_OPENEYE_NAME>
N-(cyclohexylmethyl)-3-phenyl-2H-thieno[2,3-c]pyrazole-5-carboxamide

> <PUBCHEM_IUPAC_CAS_NAME>
N-(cyclohexylmethyl)-3-phenyl-2H-thieno[2,3-c]pyrazole-5-carboxamide

> <PUBCHEM_IUPAC_NAME_MARKUP>
<I>N</I>-(cyclohexylmethyl)-3-phenyl-2<I>H</I>-thieno[2,3-c]pyrazole-5-carboxamide

> <PUBCHEM_IUPAC_NAME>
N-(cyclohexylmethyl)-3-phenyl-2H-thieno[2,3-c]pyrazole-5-carboxamide

> <PUBCHEM_IUPAC_SYSTEMATIC_NAME>
N-(cyclohexylmethyl)-3-phenyl-2H-thieno[2,3-c]pyrazole-5-carboxamide

> <PUBCHEM_IUPAC_TRADITIONAL_NAME>
N-(cyclohexylmethyl)-3-phenyl-2H-thieno[2,3-c]pyrazole-5-carboxamide

> <PUBCHEM_IUPAC_INCHI>
InChI=1S/C19H21N3OS/c23-18(20-12-13-7-3-1-4-8-13)16-11-15-17(21-22-19(15)24-16)14-9-5-2-6-10-14/h2,5-6,9-11,13H,1,3-4,7-8,12H2,(H,20,23)(H,21,22)

> <PUBCHEM_IUPAC_INCHIKEY>
WYOMXSAYYXBPMN-UHFFFAOYSA-N

> <PUBCHEM_XLOGP3_AA>
5.2

> <PUBCHEM_EXACT_MASS>
339.14053348

> <PUBCHEM_MOLECULAR_FORMULA>
C19H21N3OS

> <PUBCHEM_MOLECULAR_WEIGHT>
339.5

> <PUBCHEM_SMILES>
C1CCC(CC1)CNC(=O)C2=CC3=C(NN=C3S2)C4=CC=CC=C4

> <PUBCHEM_OPENEYE_CAN_SMILES>
C1CCC(CC1)CNC(=O)C2=CC3=C(NN=C3S2)C4=CC=CC=C4

> <PUBCHEM_OPENEYE_ISO_SMILES>
C1CCC(CC1)CNC(=O)C2=CC3=C(NN=C3S2)C4=CC=CC=C4

> <PUBCHEM_CACTVS_TPSA>
86

> <PUBCHEM_MONOISOTOPIC_WEIGHT>
339.14053348

> <PUBCHEM_TOTAL_CHARGE>
0

> <PUBCHEM_HEAVY_ATOM_COUNT>
24

> <PUBCHEM_ATOM_DEF_STEREO_COUNT>
0

> <PUBCHEM_ATOM_UDEF_STEREO_COUNT>
0

> <PUBCHEM_BOND_DEF_STEREO_COUNT>
0

> <PUBCHEM_BOND_UDEF_STEREO_COUNT>
0

> <PUBCHEM_ISOTOPIC_ATOM_COUNT>
0

> <PUBCHEM_COMPONENT_COUNT>
1

> <PUBCHEM_CACTVS_TAUTO_COUNT>
-1

> <PUBCHEM_COORDINATE_TYPE>
1
5
255

> <PUBCHEM_BONDANNOTATIONS>
1  14  8
1  17  8
14  16  8
15  16  8
15  17  8
15  18  8
19  20  8
19  21  8
20  22  8
21  23  8
22  24  8
23  24  8
4  18  8
4  5  8
5  17  8

$$$$
