49830802
  -OEChem-03202501572D

 46 50  0     0  0  0  0  0  0999 V2000
    3.9694   -2.1153    0.0000 F   0  0  0  0  0  0  0  0  0  0  0  0
    7.3578   -2.8355    0.0000 F   0  0  0  0  0  0  0  0  0  0  0  0
    3.5762    1.2423    0.0000 N   0  0  0  0  0  0  0  0  0  0  0  0
    3.4071   -0.3669    0.0000 N   0  0  0  0  0  0  0  0  0  0  0  0
    7.0878    1.3355    0.0000 N   0  0  0  0  0  0  0  0  0  0  0  0
    6.2218    0.8355    0.0000 N   0  0  0  0  0  0  0  0  0  0  0  0
    8.6177    1.8355    0.0000 N   0  0  0  0  0  0  0  0  0  0  0  0
    8.0341    2.6402    0.0000 N   0  0  0  0  0  0  0  0  0  0  0  0
    3.0769    2.1019    0.0000 C   0  0  0  0  0  0  0  0  0  0  0  0
    2.1048    1.8943    0.0000 C   0  0  0  0  0  0  0  0  0  0  0  0
    2.0000    0.9058    0.0000 C   0  0  0  0  0  0  0  0  0  0  0  0
    2.9071    0.4991    0.0000 C   0  0  0  0  0  0  0  0  0  0  0  0
    4.4898    0.8355    0.0000 C   0  0  0  0  0  0  0  0  0  0  0  0
    4.3852   -0.1590    0.0000 C   0  0  0  0  0  0  0  0  0  0  0  0
    5.3558    1.3355    0.0000 C   0  0  0  0  0  0  0  0  0  0  0  0
    5.1284   -0.8281    0.0000 C   0  0  0  0  0  0  0  0  0  0  0  0
    5.3558    2.3355    0.0000 C   0  0  0  0  0  0  0  0  0  0  0  0
    8.3447    0.0803    0.0000 C   0  0  0  0  0  0  0  0  0  0  0  0
    8.0341    1.0308    0.0000 C   0  0  0  0  0  0  0  0  0  0  0  0
    7.0878    2.3355    0.0000 C   0  0  0  0  0  0  0  0  0  0  0  0
    6.2218    2.8355    0.0000 C   0  0  0  0  0  0  0  0  0  0  0  0
    4.9205   -1.8063    0.0000 C   0  0  0  0  0  0  0  0  0  0  0  0
    6.0794   -0.5191    0.0000 C   0  0  0  0  0  0  0  0  0  0  0  0
    9.3232   -0.1259    0.0000 C   0  0  0  0  0  0  0  0  0  0  0  0
    7.6769   -0.6640    0.0000 C   0  0  0  0  0  0  0  0  0  0  0  0
    5.6636   -2.4754    0.0000 C   0  0  0  0  0  0  0  0  0  0  0  0
    6.8226   -1.1882    0.0000 C   0  0  0  0  0  0  0  0  0  0  0  0
    6.6147   -2.1664    0.0000 C   0  0  0  0  0  0  0  0  0  0  0  0
    3.6428    2.3552    0.0000 H   0  0  0  0  0  0  0  0  0  0  0  0
    2.8845    2.6912    0.0000 H   0  0  0  0  0  0  0  0  0  0  0  0
    2.0398    2.5109    0.0000 H   0  0  0  0  0  0  0  0  0  0  0  0
    1.4848    1.8945    0.0000 H   0  0  0  0  0  0  0  0  0  0  0  0
    1.3937    1.0356    0.0000 H   0  0  0  0  0  0  0  0  0  0  0  0
    1.8072    0.3165    0.0000 H   0  0  0  0  0  0  0  0  0  0  0  0
    4.8188    2.6455    0.0000 H   0  0  0  0  0  0  0  0  0  0  0  0
    7.7380    0.2081    0.0000 H   0  0  0  0  0  0  0  0  0  0  0  0
    6.2218    3.4555    0.0000 H   0  0  0  0  0  0  0  0  0  0  0  0
    6.2083    0.0873    0.0000 H   0  0  0  0  0  0  0  0  0  0  0  0
    9.1954   -0.7326    0.0000 H   0  0  0  0  0  0  0  0  0  0  0  0
    9.9299   -0.2538    0.0000 H   0  0  0  0  0  0  0  0  0  0  0  0
    9.4511    0.4807    0.0000 H   0  0  0  0  0  0  0  0  0  0  0  0
    7.2154   -0.2500    0.0000 H   0  0  0  0  0  0  0  0  0  0  0  0
    7.2628   -1.1255    0.0000 H   0  0  0  0  0  0  0  0  0  0  0  0
    8.1383   -1.0781    0.0000 H   0  0  0  0  0  0  0  0  0  0  0  0
    5.5347   -3.0819    0.0000 H   0  0  0  0  0  0  0  0  0  0  0  0
    7.4122   -0.9967    0.0000 H   0  0  0  0  0  0  0  0  0  0  0  0
  1 22  1  0  0  0  0
  2 28  1  0  0  0  0
  3  9  1  0  0  0  0
  3 12  1  0  0  0  0
  3 13  1  0  0  0  0
  4 12  2  0  0  0  0
  4 14  1  0  0  0  0
  5  6  1  0  0  0  0
  5 19  1  0  0  0  0
  5 20  1  0  0  0  0
  6 15  2  0  0  0  0
  7  8  1  0  0  0  0
  7 19  2  0  0  0  0
  8 20  2  0  0  0  0
  9 10  1  0  0  0  0
  9 29  1  0  0  0  0
  9 30  1  0  0  0  0
 10 11  1  0  0  0  0
 10 31  1  0  0  0  0
 10 32  1  0  0  0  0
 11 12  1  0  0  0  0
 11 33  1  0  0  0  0
 11 34  1  0  0  0  0
 13 14  2  0  0  0  0
 13 15  1  0  0  0  0
 14 16  1  0  0  0  0
 15 17  1  0  0  0  0
 16 22  2  0  0  0  0
 16 23  1  0  0  0  0
 17 21  2  0  0  0  0
 17 35  1  0  0  0  0
 18 19  1  0  0  0  0
 18 24  1  0  0  0  0
 18 25  1  0  0  0  0
 18 36  1  0  0  0  0
 20 21  1  0  0  0  0
 21 37  1  0  0  0  0
 22 26  1  0  0  0  0
 23 27  2  0  0  0  0
 23 38  1  0  0  0  0
 24 39  1  0  0  0  0
 24 40  1  0  0  0  0
 24 41  1  0  0  0  0
 25 42  1  0  0  0  0
 25 43  1  0  0  0  0
 25 44  1  0  0  0  0
 26 28  2  0  0  0  0
 26 45  1  0  0  0  0
 27 28  1  0  0  0  0
 27 46  1  0  0  0  0
M  END
> <PUBCHEM_COMPOUND_CID>
49830802

> <PUBCHEM_COMPOUND_CANONICALIZED>
1

> <PUBCHEM_CACTVS_COMPLEXITY>
565

> <PUBCHEM_CACTVS_HBOND_ACCEPTOR>
6

> <PUBCHEM_CACTVS_HBOND_DONOR>
0

> <PUBCHEM_CACTVS_ROTATABLE_BOND>
3

> <PUBCHEM_CACTVS_SUBSKEYS>
AAADceB7gYAAAAAAAAAAAAAAAAAAAWLFgAA8QAAAAAAWAFgB/AAAHQAIAAAADQjBHwwzsJ8MEACiAyZiZACShC8hEqAd2CA4dJiIaKLA2ZGUoAhoiALIyCcQgMAOAAAAAAAAAAAAAAAAAAAAAAAAAAAAAA==

> <PUBCHEM_IUPAC_OPENEYE_NAME>
6-[2-(2,4-difluorophenyl)-6,7-dihydro-5H-pyrrolo[1,2-a]imidazol-3-yl]-3-isopropyl-[1,2,4]triazolo[4,3-b]pyridazine

> <PUBCHEM_IUPAC_CAS_NAME>
6-[2-(2,4-difluorophenyl)-6,7-dihydro-5H-pyrrolo[1,2-a]imidazol-3-yl]-3-propan-2-yl-[1,2,4]triazolo[4,3-b]pyridazine

> <PUBCHEM_IUPAC_NAME_MARKUP>
6-[2-(2,4-difluorophenyl)-6,7-dihydro-5<I>H</I>-pyrrolo[1,2-a]imidazol-3-yl]-3-propan-2-yl-[1,2,4]triazolo[4,3-b]pyridazine

> <PUBCHEM_IUPAC_NAME>
6-[2-(2,4-difluorophenyl)-6,7-dihydro-5H-pyrrolo[1,2-a]imidazol-3-yl]-3-propan-2-yl-[1,2,4]triazolo[4,3-b]pyridazine

> <PUBCHEM_IUPAC_SYSTEMATIC_NAME>
6-[2-[2,4-bis(fluoranyl)phenyl]-6,7-dihydro-5H-pyrrolo[1,2-a]imidazol-3-yl]-3-propan-2-yl-[1,2,4]triazolo[4,3-b]pyridazine

> <PUBCHEM_IUPAC_TRADITIONAL_NAME>
6-[2-(2,4-difluorophenyl)-6,7-dihydro-5H-pyrrol[1,2-a]imidazol-3-yl]-3-isopropyl-[1,2,4]triazolo[4,3-b]pyridazine

> <PUBCHEM_IUPAC_INCHI>
InChI=1S/C20H18F2N6/c1-11(2)20-25-24-17-8-7-15(26-28(17)20)19-18(23-16-4-3-9-27(16)19)13-6-5-12(21)10-14(13)22/h5-8,10-11H,3-4,9H2,1-2H3

> <PUBCHEM_IUPAC_INCHIKEY>
BJJHHKOPTKQUFQ-UHFFFAOYSA-N

> <PUBCHEM_XLOGP3_AA>
2.9

> <PUBCHEM_EXACT_MASS>
380.15610092

> <PUBCHEM_MOLECULAR_FORMULA>
C20H18F2N6

> <PUBCHEM_MOLECULAR_WEIGHT>
380.4

> <PUBCHEM_SMILES>
CC(C)C1=NN=C2N1N=C(C=C2)C3=C(N=C4N3CCC4)C5=C(C=C(C=C5)F)F

> <PUBCHEM_OPENEYE_CAN_SMILES>
CC(C)C1=NN=C2N1N=C(C=C2)C3=C(N=C4N3CCC4)C5=C(C=C(C=C5)F)F

> <PUBCHEM_OPENEYE_ISO_SMILES>
CC(C)C1=NN=C2N1N=C(C=C2)C3=C(N=C4N3CCC4)C5=C(C=C(C=C5)F)F

> <PUBCHEM_CACTVS_TPSA>
60.9

> <PUBCHEM_MONOISOTOPIC_WEIGHT>
380.15610092

> <PUBCHEM_TOTAL_CHARGE>
0

> <PUBCHEM_HEAVY_ATOM_COUNT>
28

> <PUBCHEM_ATOM_DEF_STEREO_COUNT>
0

> <PUBCHEM_ATOM_UDEF_STEREO_COUNT>
0

> <PUBCHEM_BOND_DEF_STEREO_COUNT>
0

> <PUBCHEM_BOND_UDEF_STEREO_COUNT>
0

> <PUBCHEM_ISOTOPIC_ATOM_COUNT>
0

> <PUBCHEM_COMPONENT_COUNT>
1

> <PUBCHEM_CACTVS_TAUTO_COUNT>
-1

> <PUBCHEM_COORDINATE_TYPE>
1
5
255

> <PUBCHEM_BONDANNOTATIONS>
13  14  8
15  17  8
16  22  8
16  23  8
17  21  8
20  21  8
22  26  8
23  27  8
26  28  8
27  28  8
3  12  8
3  13  8
4  12  8
4  14  8
5  19  8
5  20  8
5  6  8
6  15  8
7  19  8
7  8  8
8  20  8

$$$$
