24905231
  -OEChem-03192523482D

 56 59  0     0  0  0  0  0  0999 V2000
    9.1939    1.9318    0.0000 O   0  0  0  0  0  0  0  0  0  0  0  0
   10.0772    0.4419    0.0000 O   0  0  0  0  0  0  0  0  0  0  0  0
    3.7899    0.5852    0.0000 N   0  0  0  0  0  0  0  0  0  0  0  0
    4.7617    0.3760    0.0000 N   0  0  0  0  0  0  0  0  0  0  0  0
    2.3107   -0.4797    0.0000 N   0  0  0  0  0  0  0  0  0  0  0  0
    8.3452    0.4219    0.0000 N   0  0  0  0  0  0  0  0  0  0  0  0
    2.6678   -2.1746    0.0000 N   0  0  0  0  0  0  0  0  0  0  0  0
    8.3568   -2.6474    0.0000 N   0  0  0  0  0  0  0  0  0  0  0  0
    4.3142   -2.7126    0.0000 N   0  0  0  0  0  0  0  0  0  0  0  0
    3.3864    1.5002    0.0000 C   0  0  0  0  0  0  0  0  0  0  0  0
    4.8648   -0.6127    0.0000 C   0  0  0  0  0  0  0  0  0  0  0  0
    3.9570   -1.0178    0.0000 C   0  0  0  0  0  0  0  0  0  0  0  0
    3.2892   -0.2735    0.0000 C   0  0  0  0  0  0  0  0  0  0  0  0
    5.7308   -1.1127    0.0000 C   0  0  0  0  0  0  0  0  0  0  0  0
    3.9769    2.3071    0.0000 C   0  0  0  0  0  0  0  0  0  0  0  0
    2.3922    1.6081    0.0000 C   0  0  0  0  0  0  0  0  0  0  0  0
    7.4629   -1.1127    0.0000 C   0  0  0  0  0  0  0  0  0  0  0  0
   10.0541    2.4418    0.0000 C   0  0  0  0  0  0  0  0  0  0  0  0
    6.5968   -0.6127    0.0000 C   0  0  0  0  0  0  0  0  0  0  0  0
    3.6464   -1.9683    0.0000 C   0  0  0  0  0  0  0  0  0  0  0  0
    5.7308   -2.1127    0.0000 C   0  0  0  0  0  0  0  0  0  0  0  0
    7.4629   -2.1127    0.0000 C   0  0  0  0  0  0  0  0  0  0  0  0
    8.3568   -0.5780    0.0000 C   0  0  0  0  0  0  0  0  0  0  0  0
    6.5968   -2.6127    0.0000 C   0  0  0  0  0  0  0  0  0  0  0  0
   10.9142    2.9518    0.0000 C   0  0  0  0  0  0  0  0  0  0  0  0
    9.5441    3.3020    0.0000 C   0  0  0  0  0  0  0  0  0  0  0  0
   10.5640    1.5816    0.0000 C   0  0  0  0  0  0  0  0  0  0  0  0
    9.2629   -1.0919    0.0000 C   0  0  0  0  0  0  0  0  0  0  0  0
    2.0000   -1.4303    0.0000 C   0  0  0  0  0  0  0  0  0  0  0  0
    9.2054    0.9319    0.0000 C   0  0  0  0  0  0  0  0  0  0  0  0
    9.2629   -2.1335    0.0000 C   0  0  0  0  0  0  0  0  0  0  0  0
    3.1361    2.0674    0.0000 H   0  0  0  0  0  0  0  0  0  0  0  0
    4.4773    1.9410    0.0000 H   0  0  0  0  0  0  0  0  0  0  0  0
    4.3431    2.8075    0.0000 H   0  0  0  0  0  0  0  0  0  0  0  0
    3.4766    2.6733    0.0000 H   0  0  0  0  0  0  0  0  0  0  0  0
    2.4591    2.2245    0.0000 H   0  0  0  0  0  0  0  0  0  0  0  0
    1.7758    1.6751    0.0000 H   0  0  0  0  0  0  0  0  0  0  0  0
    2.3253    0.9918    0.0000 H   0  0  0  0  0  0  0  0  0  0  0  0
    6.5968    0.0073    0.0000 H   0  0  0  0  0  0  0  0  0  0  0  0
    5.1939   -2.4227    0.0000 H   0  0  0  0  0  0  0  0  0  0  0  0
    6.5968   -3.2327    0.0000 H   0  0  0  0  0  0  0  0  0  0  0  0
   11.2304    2.4184    0.0000 H   0  0  0  0  0  0  0  0  0  0  0  0
   11.4476    3.2680    0.0000 H   0  0  0  0  0  0  0  0  0  0  0  0
   10.5981    3.4851    0.0000 H   0  0  0  0  0  0  0  0  0  0  0  0
   10.0774    3.6182    0.0000 H   0  0  0  0  0  0  0  0  0  0  0  0
    9.2279    3.8353    0.0000 H   0  0  0  0  0  0  0  0  0  0  0  0
    9.0108    2.9858    0.0000 H   0  0  0  0  0  0  0  0  0  0  0  0
   10.0307    1.2654    0.0000 H   0  0  0  0  0  0  0  0  0  0  0  0
   10.8802    1.0483    0.0000 H   0  0  0  0  0  0  0  0  0  0  0  0
   11.0974    1.8978    0.0000 H   0  0  0  0  0  0  0  0  0  0  0  0
    7.8048    0.7257    0.0000 H   0  0  0  0  0  0  0  0  0  0  0  0
    9.7986   -0.7798    0.0000 H   0  0  0  0  0  0  0  0  0  0  0  0
    1.3933   -1.5581    0.0000 H   0  0  0  0  0  0  0  0  0  0  0  0
    4.1216   -3.3020    0.0000 H   0  0  0  0  0  0  0  0  0  0  0  0
    4.9209   -2.5848    0.0000 H   0  0  0  0  0  0  0  0  0  0  0  0
    9.7986   -2.4456    0.0000 H   0  0  0  0  0  0  0  0  0  0  0  0
  1 18  1  0  0  0  0
  1 30  1  0  0  0  0
  2 30  2  0  0  0  0
  3  4  1  0  0  0  0
  3 10  1  0  0  0  0
  3 13  1  0  0  0  0
  4 11  2  0  0  0  0
  5 13  2  0  0  0  0
  5 29  1  0  0  0  0
  6 23  1  0  0  0  0
  6 30  1  0  0  0  0
  6 51  1  0  0  0  0
  7 20  1  0  0  0  0
  7 29  2  0  0  0  0
  8 22  2  0  0  0  0
  8 31  1  0  0  0  0
  9 20  1  0  0  0  0
  9 54  1  0  0  0  0
  9 55  1  0  0  0  0
 10 15  1  0  0  0  0
 10 16  1  0  0  0  0
 10 32  1  0  0  0  0
 11 12  1  0  0  0  0
 11 14  1  0  0  0  0
 12 13  1  0  0  0  0
 12 20  2  0  0  0  0
 14 19  2  0  0  0  0
 14 21  1  0  0  0  0
 15 33  1  0  0  0  0
 15 34  1  0  0  0  0
 15 35  1  0  0  0  0
 16 36  1  0  0  0  0
 16 37  1  0  0  0  0
 16 38  1  0  0  0  0
 17 19  1  0  0  0  0
 17 22  1  0  0  0  0
 17 23  2  0  0  0  0
 18 25  1  0  0  0  0
 18 26  1  0  0  0  0
 18 27  1  0  0  0  0
 19 39  1  0  0  0  0
 21 24  2  0  0  0  0
 21 40  1  0  0  0  0
 22 24  1  0  0  0  0
 23 28  1  0  0  0  0
 24 41  1  0  0  0  0
 25 42  1  0  0  0  0
 25 43  1  0  0  0  0
 25 44  1  0  0  0  0
 26 45  1  0  0  0  0
 26 46  1  0  0  0  0
 26 47  1  0  0  0  0
 27 48  1  0  0  0  0
 27 49  1  0  0  0  0
 27 50  1  0  0  0  0
 28 31  2  0  0  0  0
 28 52  1  0  0  0  0
 29 53  1  0  0  0  0
 31 56  1  0  0  0  0
M  END
> <PUBCHEM_COMPOUND_CID>
24905231

> <PUBCHEM_COMPOUND_CANONICALIZED>
1

> <PUBCHEM_CACTVS_COMPLEXITY>
640

> <PUBCHEM_CACTVS_HBOND_ACCEPTOR>
7

> <PUBCHEM_CACTVS_HBOND_DONOR>
2

> <PUBCHEM_CACTVS_ROTATABLE_BOND>
5

> <PUBCHEM_CACTVS_SUBSKEYS>
AAADceB7sAAAAAAAAAAAAAAAAAAAAWAAAAA8WIAAAAAAAFix/gAAHgAYAAAADGzBnwQ/+P7IFACqAzZnfACShCsxgqAd2CA4ZJmIKOLA2dGMpAhonALIyCcQgMAOCAACAAACAAAQAAQAAAQAAAAAAAAAAA==

> <PUBCHEM_IUPAC_OPENEYE_NAME>
tert-butyl N-[6-(4-amino-1-isopropyl-pyrazolo[3,4-d]pyrimidin-3-yl)-4-quinolyl]carbamate

> <PUBCHEM_IUPAC_CAS_NAME>
N-[6-(4-amino-1-propan-2-yl-3-pyrazolo[3,4-d]pyrimidinyl)-4-quinolinyl]carbamic acid tert-butyl ester

> <PUBCHEM_IUPAC_NAME_MARKUP>
<I>tert</I>-butyl <I>N</I>-[6-(4-amino-1-propan-2-ylpyrazolo[3,4-d]pyrimidin-3-yl)quinolin-4-yl]carbamate

> <PUBCHEM_IUPAC_NAME>
tert-butyl N-[6-(4-amino-1-propan-2-ylpyrazolo[3,4-d]pyrimidin-3-yl)quinolin-4-yl]carbamate

> <PUBCHEM_IUPAC_SYSTEMATIC_NAME>
tert-butyl N-[6-(4-azanyl-1-propan-2-yl-pyrazolo[3,4-d]pyrimidin-3-yl)quinolin-4-yl]carbamate

> <PUBCHEM_IUPAC_TRADITIONAL_NAME>
N-[6-(4-amino-1-isopropyl-pyrazolo[3,4-d]pyrimidin-3-yl)-4-quinolyl]carbamic acid tert-butyl ester

> <PUBCHEM_IUPAC_INCHI>
InChI=1S/C22H25N7O2/c1-12(2)29-20-17(19(23)25-11-26-20)18(28-29)13-6-7-15-14(10-13)16(8-9-24-15)27-21(30)31-22(3,4)5/h6-12H,1-5H3,(H2,23,25,26)(H,24,27,30)

> <PUBCHEM_IUPAC_INCHIKEY>
XEFOGCQNLWUZGB-UHFFFAOYSA-N

> <PUBCHEM_XLOGP3_AA>
3

> <PUBCHEM_EXACT_MASS>
419.20697307

> <PUBCHEM_MOLECULAR_FORMULA>
C22H25N7O2

> <PUBCHEM_MOLECULAR_WEIGHT>
419.5

> <PUBCHEM_SMILES>
CC(C)N1C2=NC=NC(=C2C(=N1)C3=CC4=C(C=CN=C4C=C3)NC(=O)OC(C)(C)C)N

> <PUBCHEM_OPENEYE_CAN_SMILES>
CC(C)N1C2=NC=NC(=C2C(=N1)C3=CC4=C(C=CN=C4C=C3)NC(=O)OC(C)(C)C)N

> <PUBCHEM_OPENEYE_ISO_SMILES>
CC(C)N1C2=NC=NC(=C2C(=N1)C3=CC4=C(C=CN=C4C=C3)NC(=O)OC(C)(C)C)N

> <PUBCHEM_CACTVS_TPSA>
121

> <PUBCHEM_MONOISOTOPIC_WEIGHT>
419.20697307

> <PUBCHEM_TOTAL_CHARGE>
0

> <PUBCHEM_HEAVY_ATOM_COUNT>
31

> <PUBCHEM_ATOM_DEF_STEREO_COUNT>
0

> <PUBCHEM_ATOM_UDEF_STEREO_COUNT>
0

> <PUBCHEM_BOND_DEF_STEREO_COUNT>
0

> <PUBCHEM_BOND_UDEF_STEREO_COUNT>
0

> <PUBCHEM_ISOTOPIC_ATOM_COUNT>
0

> <PUBCHEM_COMPONENT_COUNT>
1

> <PUBCHEM_CACTVS_TAUTO_COUNT>
-1

> <PUBCHEM_COORDINATE_TYPE>
1
5
255

> <PUBCHEM_BONDANNOTATIONS>
11  12  8
12  13  8
12  20  8
14  19  8
14  21  8
17  19  8
17  22  8
17  23  8
21  24  8
22  24  8
23  28  8
28  31  8
3  13  8
3  4  8
4  11  8
5  13  8
5  29  8
7  20  8
7  29  8
8  22  8
8  31  8

$$$$
