24905286
  -OEChem-03192523342D

 30 32  0     0  0  0  0  0  0999 V2000
    5.9209    2.4313    0.0000 O   0  0  0  0  0  0  0  0  0  0  0  0
    7.2566    0.9427    0.0000 O   0  0  0  0  0  0  0  0  0  0  0  0
    5.2619   -2.1756    0.0000 N   0  0  0  0  0  0  0  0  0  0  0  0
    4.6783   -2.9803    0.0000 N   0  0  0  0  0  0  0  0  0  0  0  0
    2.8660   -3.1756    0.0000 N   0  0  0  0  0  0  0  0  0  0  0  0
    2.0000   -1.6756    0.0000 N   0  0  0  0  0  0  0  0  0  0  0  0
    2.8660   -0.1756    0.0000 N   0  0  0  0  0  0  0  0  0  0  0  0
    4.6783   -1.3708    0.0000 C   0  0  0  0  0  0  0  0  0  0  0  0
    3.7320   -1.6756    0.0000 C   0  0  0  0  0  0  0  0  0  0  0  0
    4.9889   -0.4203    0.0000 C   0  0  0  0  0  0  0  0  0  0  0  0
    3.7320   -2.6756    0.0000 C   0  0  0  0  0  0  0  0  0  0  0  0
    5.9674   -0.2141    0.0000 C   0  0  0  0  0  0  0  0  0  0  0  0
    4.3211    0.3240    0.0000 C   0  0  0  0  0  0  0  0  0  0  0  0
    2.8660   -1.1756    0.0000 C   0  0  0  0  0  0  0  0  0  0  0  0
    6.2781    0.7364    0.0000 C   0  0  0  0  0  0  0  0  0  0  0  0
    5.6103    1.4807    0.0000 C   0  0  0  0  0  0  0  0  0  0  0  0
    4.6318    1.2745    0.0000 C   0  0  0  0  0  0  0  0  0  0  0  0
    2.0000   -2.6756    0.0000 C   0  0  0  0  0  0  0  0  0  0  0  0
    5.2531    3.1756    0.0000 C   0  0  0  0  0  0  0  0  0  0  0  0
    5.8819   -2.1756    0.0000 H   0  0  0  0  0  0  0  0  0  0  0  0
    6.3815   -0.6756    0.0000 H   0  0  0  0  0  0  0  0  0  0  0  0
    3.7144    0.1961    0.0000 H   0  0  0  0  0  0  0  0  0  0  0  0
    4.2177    1.7360    0.0000 H   0  0  0  0  0  0  0  0  0  0  0  0
    1.4631   -2.9856    0.0000 H   0  0  0  0  0  0  0  0  0  0  0  0
    2.3291    0.1344    0.0000 H   0  0  0  0  0  0  0  0  0  0  0  0
    3.4030    0.1344    0.0000 H   0  0  0  0  0  0  0  0  0  0  0  0
    7.6707    0.4812    0.0000 H   0  0  0  0  0  0  0  0  0  0  0  0
    5.7145    3.5896    0.0000 H   0  0  0  0  0  0  0  0  0  0  0  0
    4.8390    3.6370    0.0000 H   0  0  0  0  0  0  0  0  0  0  0  0
    4.7916    2.7615    0.0000 H   0  0  0  0  0  0  0  0  0  0  0  0
  1 16  1  0  0  0  0
  1 19  1  0  0  0  0
  2 15  1  0  0  0  0
  2 27  1  0  0  0  0
  3  4  1  0  0  0  0
  3  8  1  0  0  0  0
  3 20  1  0  0  0  0
  4 11  2  0  0  0  0
  5 11  1  0  0  0  0
  5 18  2  0  0  0  0
  6 14  2  0  0  0  0
  6 18  1  0  0  0  0
  7 14  1  0  0  0  0
  7 25  1  0  0  0  0
  7 26  1  0  0  0  0
  8  9  2  0  0  0  0
  8 10  1  0  0  0  0
  9 11  1  0  0  0  0
  9 14  1  0  0  0  0
 10 12  2  0  0  0  0
 10 13  1  0  0  0  0
 12 15  1  0  0  0  0
 12 21  1  0  0  0  0
 13 17  2  0  0  0  0
 13 22  1  0  0  0  0
 15 16  2  0  0  0  0
 16 17  1  0  0  0  0
 17 23  1  0  0  0  0
 18 24  1  0  0  0  0
 19 28  1  0  0  0  0
 19 29  1  0  0  0  0
 19 30  1  0  0  0  0
M  END
> <PUBCHEM_COMPOUND_CID>
24905286

> <PUBCHEM_COMPOUND_CANONICALIZED>
1

> <PUBCHEM_CACTVS_COMPLEXITY>
318

> <PUBCHEM_CACTVS_HBOND_ACCEPTOR>
6

> <PUBCHEM_CACTVS_HBOND_DONOR>
3

> <PUBCHEM_CACTVS_ROTATABLE_BOND>
2

> <PUBCHEM_CACTVS_SUBSKEYS>
AAADccBzsAAAAAAAAAAAAAAAAAAAAWAAAAA8QAAAAAAAAFgB/AAAHgAYCAAADAyBnwY3tt5rFgCiAyZjZACSjCsxIKAd+SAuzJiNLqLG+duE9CtsyBNL+Cew0PEOIAABAAAAQABAAAIAAACAAAAAAAAAAA==

> <PUBCHEM_IUPAC_OPENEYE_NAME>
5-(4-amino-2H-pyrazolo[3,4-d]pyrimidin-3-yl)-2-methoxy-phenol

> <PUBCHEM_IUPAC_CAS_NAME>
5-(4-amino-2H-pyrazolo[3,4-d]pyrimidin-3-yl)-2-methoxyphenol

> <PUBCHEM_IUPAC_NAME_MARKUP>
5-(4-amino-2<I>H</I>-pyrazolo[3,4-d]pyrimidin-3-yl)-2-methoxyphenol

> <PUBCHEM_IUPAC_NAME>
5-(4-amino-2H-pyrazolo[3,4-d]pyrimidin-3-yl)-2-methoxyphenol

> <PUBCHEM_IUPAC_SYSTEMATIC_NAME>
5-(4-azanyl-2H-pyrazolo[3,4-d]pyrimidin-3-yl)-2-methoxy-phenol

> <PUBCHEM_IUPAC_TRADITIONAL_NAME>
5-(4-amino-2H-pyrazolo[3,4-d]pyrimidin-3-yl)-2-methoxy-phenol

> <PUBCHEM_IUPAC_INCHI>
InChI=1S/C12H11N5O2/c1-19-8-3-2-6(4-7(8)18)10-9-11(13)14-5-15-12(9)17-16-10/h2-5,18H,1H3,(H3,13,14,15,16,17)

> <PUBCHEM_IUPAC_INCHIKEY>
QPZURRPXZSPBJE-UHFFFAOYSA-N

> <PUBCHEM_XLOGP3_AA>
1.1

> <PUBCHEM_EXACT_MASS>
257.09127461

> <PUBCHEM_MOLECULAR_FORMULA>
C12H11N5O2

> <PUBCHEM_MOLECULAR_WEIGHT>
257.25

> <PUBCHEM_SMILES>
COC1=C(C=C(C=C1)C2=C3C(=NC=NC3=NN2)N)O

> <PUBCHEM_OPENEYE_CAN_SMILES>
COC1=C(C=C(C=C1)C2=C3C(=NC=NC3=NN2)N)O

> <PUBCHEM_OPENEYE_ISO_SMILES>
COC1=C(C=C(C=C1)C2=C3C(=NC=NC3=NN2)N)O

> <PUBCHEM_CACTVS_TPSA>
110

> <PUBCHEM_MONOISOTOPIC_WEIGHT>
257.09127461

> <PUBCHEM_TOTAL_CHARGE>
0

> <PUBCHEM_HEAVY_ATOM_COUNT>
19

> <PUBCHEM_ATOM_DEF_STEREO_COUNT>
0

> <PUBCHEM_ATOM_UDEF_STEREO_COUNT>
0

> <PUBCHEM_BOND_DEF_STEREO_COUNT>
0

> <PUBCHEM_BOND_UDEF_STEREO_COUNT>
0

> <PUBCHEM_ISOTOPIC_ATOM_COUNT>
0

> <PUBCHEM_COMPONENT_COUNT>
1

> <PUBCHEM_CACTVS_TAUTO_COUNT>
-1

> <PUBCHEM_COORDINATE_TYPE>
1
5
255

> <PUBCHEM_BONDANNOTATIONS>
10  12  8
10  13  8
12  15  8
13  17  8
15  16  8
16  17  8
3  4  8
3  8  8
4  11  8
5  11  8
5  18  8
6  14  8
6  18  8
8  9  8
9  11  8
9  14  8

$$$$
