10318148
  -OEChem-03202507152D

 48 51  0     0  0  0  0  0  0999 V2000
    6.7210   -1.7552    0.0000 O   0  0  0  0  0  0  0  0  0  0  0  0
    6.7210    1.7552    0.0000 O   0  0  0  0  0  0  0  0  0  0  0  0
    2.8660   -5.0000    0.0000 O   0  0  0  0  0  0  0  0  0  0  0  0
    2.8660    5.0000    0.0000 O   0  0  0  0  0  0  0  0  0  0  0  0
    2.8660   -1.0000    0.0000 N   0  0  0  0  0  0  0  0  0  0  0  0
    2.8660    1.0000    0.0000 N   0  0  0  0  0  0  0  0  0  0  0  0
    6.9939   -0.0000    0.0000 N   0  0  0  0  0  0  0  0  0  0  0  0
    5.4641   -0.5000    0.0000 C   0  0  0  0  0  0  0  0  0  0  0  0
    5.4641    0.5000    0.0000 C   0  0  0  0  0  0  0  0  0  0  0  0
    3.7320   -0.5000    0.0000 C   0  0  0  0  0  0  0  0  0  0  0  0
    3.7320    0.5000    0.0000 C   0  0  0  0  0  0  0  0  0  0  0  0
    4.5981   -1.0000    0.0000 C   0  0  0  0  0  0  0  0  0  0  0  0
    4.5981    1.0000    0.0000 C   0  0  0  0  0  0  0  0  0  0  0  0
    6.4103   -0.8047    0.0000 C   0  0  0  0  0  0  0  0  0  0  0  0
    6.4103    0.8047    0.0000 C   0  0  0  0  0  0  0  0  0  0  0  0
    2.8660   -2.0000    0.0000 C   0  0  0  0  0  0  0  0  0  0  0  0
    2.8660    2.0000    0.0000 C   0  0  0  0  0  0  0  0  0  0  0  0
    3.7320   -2.5000    0.0000 C   0  0  0  0  0  0  0  0  0  0  0  0
    2.0000    2.5000    0.0000 C   0  0  0  0  0  0  0  0  0  0  0  0
    2.0000   -2.5000    0.0000 C   0  0  0  0  0  0  0  0  0  0  0  0
    3.7320    2.5000    0.0000 C   0  0  0  0  0  0  0  0  0  0  0  0
    3.7320   -3.5000    0.0000 C   0  0  0  0  0  0  0  0  0  0  0  0
    2.0000    3.5000    0.0000 C   0  0  0  0  0  0  0  0  0  0  0  0
    2.0000   -3.5000    0.0000 C   0  0  0  0  0  0  0  0  0  0  0  0
    3.7320    3.5000    0.0000 C   0  0  0  0  0  0  0  0  0  0  0  0
    2.8660   -4.0000    0.0000 C   0  0  0  0  0  0  0  0  0  0  0  0
    2.8660    4.0000    0.0000 C   0  0  0  0  0  0  0  0  0  0  0  0
    2.0000   -5.5000    0.0000 C   0  0  0  0  0  0  0  0  0  0  0  0
    2.0000    5.5000    0.0000 C   0  0  0  0  0  0  0  0  0  0  0  0
    4.5981   -1.6200    0.0000 H   0  0  0  0  0  0  0  0  0  0  0  0
    4.5981    1.6200    0.0000 H   0  0  0  0  0  0  0  0  0  0  0  0
    2.3291   -0.6900    0.0000 H   0  0  0  0  0  0  0  0  0  0  0  0
    2.3291    0.6900    0.0000 H   0  0  0  0  0  0  0  0  0  0  0  0
    7.6139   -0.0000    0.0000 H   0  0  0  0  0  0  0  0  0  0  0  0
    4.2690   -2.1900    0.0000 H   0  0  0  0  0  0  0  0  0  0  0  0
    1.4631    2.1900    0.0000 H   0  0  0  0  0  0  0  0  0  0  0  0
    1.4631   -2.1900    0.0000 H   0  0  0  0  0  0  0  0  0  0  0  0
    4.2690    2.1900    0.0000 H   0  0  0  0  0  0  0  0  0  0  0  0
    4.2690   -3.8100    0.0000 H   0  0  0  0  0  0  0  0  0  0  0  0
    1.4631    3.8100    0.0000 H   0  0  0  0  0  0  0  0  0  0  0  0
    1.4631   -3.8100    0.0000 H   0  0  0  0  0  0  0  0  0  0  0  0
    4.2690    3.8100    0.0000 H   0  0  0  0  0  0  0  0  0  0  0  0
    1.6900   -4.9631    0.0000 H   0  0  0  0  0  0  0  0  0  0  0  0
    1.4631   -5.8100    0.0000 H   0  0  0  0  0  0  0  0  0  0  0  0
    2.3100   -6.0369    0.0000 H   0  0  0  0  0  0  0  0  0  0  0  0
    2.3100    6.0369    0.0000 H   0  0  0  0  0  0  0  0  0  0  0  0
    1.4631    5.8100    0.0000 H   0  0  0  0  0  0  0  0  0  0  0  0
    1.6900    4.9631    0.0000 H   0  0  0  0  0  0  0  0  0  0  0  0
  1 14  2  0  0  0  0
  2 15  2  0  0  0  0
  3 26  1  0  0  0  0
  3 28  1  0  0  0  0
  4 27  1  0  0  0  0
  4 29  1  0  0  0  0
  5 10  1  0  0  0  0
  5 16  1  0  0  0  0
  5 32  1  0  0  0  0
  6 11  1  0  0  0  0
  6 17  1  0  0  0  0
  6 33  1  0  0  0  0
  7 14  1  0  0  0  0
  7 15  1  0  0  0  0
  7 34  1  0  0  0  0
  8  9  1  0  0  0  0
  8 12  2  0  0  0  0
  8 14  1  0  0  0  0
  9 13  2  0  0  0  0
  9 15  1  0  0  0  0
 10 11  2  0  0  0  0
 10 12  1  0  0  0  0
 11 13  1  0  0  0  0
 12 30  1  0  0  0  0
 13 31  1  0  0  0  0
 16 18  2  0  0  0  0
 16 20  1  0  0  0  0
 17 19  2  0  0  0  0
 17 21  1  0  0  0  0
 18 22  1  0  0  0  0
 18 35  1  0  0  0  0
 19 23  1  0  0  0  0
 19 36  1  0  0  0  0
 20 24  2  0  0  0  0
 20 37  1  0  0  0  0
 21 25  2  0  0  0  0
 21 38  1  0  0  0  0
 22 26  2  0  0  0  0
 22 39  1  0  0  0  0
 23 27  2  0  0  0  0
 23 40  1  0  0  0  0
 24 26  1  0  0  0  0
 24 41  1  0  0  0  0
 25 27  1  0  0  0  0
 25 42  1  0  0  0  0
 28 43  1  0  0  0  0
 28 44  1  0  0  0  0
 28 45  1  0  0  0  0
 29 46  1  0  0  0  0
 29 47  1  0  0  0  0
 29 48  1  0  0  0  0
M  END
> <PUBCHEM_COMPOUND_CID>
10318148

> <PUBCHEM_COMPOUND_CANONICALIZED>
1

> <PUBCHEM_CACTVS_COMPLEXITY>
535

> <PUBCHEM_CACTVS_HBOND_ACCEPTOR>
6

> <PUBCHEM_CACTVS_HBOND_DONOR>
3

> <PUBCHEM_CACTVS_ROTATABLE_BOND>
6

> <PUBCHEM_CACTVS_SUBSKEYS>
AAADceB7OAAAAAAAAAAAAAAAAAAAAWAAAAAwYMAAAAAAAFgBUAAAHgAQAAAADAyBmAIyxoLABACIAiVSUACCCAAlIgAIiAEGfMgMZnLEtZuUMShk1DHI6Ye9yYCeiEAAQAAQACAQgACAACAAQAAAAAAAAA==

> <PUBCHEM_IUPAC_OPENEYE_NAME>
5,6-bis(4-methoxyanilino)isoindoline-1,3-dione

> <PUBCHEM_IUPAC_CAS_NAME>
5,6-bis(4-methoxyanilino)isoindole-1,3-dione

> <PUBCHEM_IUPAC_NAME_MARKUP>
5,6-bis(4-methoxyanilino)isoindole-1,3-dione

> <PUBCHEM_IUPAC_NAME>
5,6-bis(4-methoxyanilino)isoindole-1,3-dione

> <PUBCHEM_IUPAC_SYSTEMATIC_NAME>
5,6-bis[(4-methoxyphenyl)amino]isoindole-1,3-dione

> <PUBCHEM_IUPAC_TRADITIONAL_NAME>
5,6-bis(p-anisidino)isoindoline-1,3-quinone

> <PUBCHEM_IUPAC_INCHI>
InChI=1S/C22H19N3O4/c1-28-15-7-3-13(4-8-15)23-19-11-17-18(22(27)25-21(17)26)12-20(19)24-14-5-9-16(29-2)10-6-14/h3-12,23-24H,1-2H3,(H,25,26,27)

> <PUBCHEM_IUPAC_INCHIKEY>
SNNZHOLVTLIFSO-UHFFFAOYSA-N

> <PUBCHEM_XLOGP3_AA>
3.7

> <PUBCHEM_EXACT_MASS>
389.13755610

> <PUBCHEM_MOLECULAR_FORMULA>
C22H19N3O4

> <PUBCHEM_MOLECULAR_WEIGHT>
389.4

> <PUBCHEM_SMILES>
COC1=CC=C(C=C1)NC2=C(C=C3C(=C2)C(=O)NC3=O)NC4=CC=C(C=C4)OC

> <PUBCHEM_OPENEYE_CAN_SMILES>
COC1=CC=C(C=C1)NC2=C(C=C3C(=C2)C(=O)NC3=O)NC4=CC=C(C=C4)OC

> <PUBCHEM_OPENEYE_ISO_SMILES>
COC1=CC=C(C=C1)NC2=C(C=C3C(=C2)C(=O)NC3=O)NC4=CC=C(C=C4)OC

> <PUBCHEM_CACTVS_TPSA>
88.7

> <PUBCHEM_MONOISOTOPIC_WEIGHT>
389.13755610

> <PUBCHEM_TOTAL_CHARGE>
0

> <PUBCHEM_HEAVY_ATOM_COUNT>
29

> <PUBCHEM_ATOM_DEF_STEREO_COUNT>
0

> <PUBCHEM_ATOM_UDEF_STEREO_COUNT>
0

> <PUBCHEM_BOND_DEF_STEREO_COUNT>
0

> <PUBCHEM_BOND_UDEF_STEREO_COUNT>
0

> <PUBCHEM_ISOTOPIC_ATOM_COUNT>
0

> <PUBCHEM_COMPONENT_COUNT>
1

> <PUBCHEM_CACTVS_TAUTO_COUNT>
-1

> <PUBCHEM_COORDINATE_TYPE>
1
5
255

> <PUBCHEM_BONDANNOTATIONS>
10  11  8
10  12  8
11  13  8
16  18  8
16  20  8
17  19  8
17  21  8
18  22  8
19  23  8
20  24  8
21  25  8
22  26  8
23  27  8
24  26  8
25  27  8
8  12  8
8  9  8
9  13  8

$$$$
