25167075
  -OEChem-03202500272D

 33 36  0     0  0  0  0  0  0999 V2000
    4.8903   -0.0859    0.0000 S   0  0  0  0  0  0  0  0  0  0  0  0
   10.0173   -2.2270    0.0000 N   0  0  0  0  0  0  0  0  0  0  0  0
    6.3684    0.5723    0.0000 N   0  0  0  0  0  0  0  0  0  0  0  0
    4.9836    1.6937    0.0000 N   0  0  0  0  0  0  0  0  0  0  0  0
   10.6009   -1.4223    0.0000 N   0  0  0  0  0  0  0  0  0  0  0  0
    7.3390   -0.9223    0.0000 C   0  0  0  0  0  0  0  0  0  0  0  0
    9.0710   -0.9223    0.0000 C   0  0  0  0  0  0  0  0  0  0  0  0
    9.0710   -1.9223    0.0000 C   0  0  0  0  0  0  0  0  0  0  0  0
    8.2050   -0.4223    0.0000 C   0  0  0  0  0  0  0  0  0  0  0  0
    6.4730   -0.4223    0.0000 C   0  0  0  0  0  0  0  0  0  0  0  0
    7.3390   -1.9223    0.0000 C   0  0  0  0  0  0  0  0  0  0  0  0
    8.2050   -2.4223    0.0000 C   0  0  0  0  0  0  0  0  0  0  0  0
   10.0173   -0.6175    0.0000 C   0  0  0  0  0  0  0  0  0  0  0  0
    5.3903    0.7802    0.0000 C   0  0  0  0  0  0  0  0  0  0  0  0
    5.5594   -0.8290    0.0000 C   0  0  0  0  0  0  0  0  0  0  0  0
    3.9890    1.7982    0.0000 C   0  0  0  0  0  0  0  0  0  0  0  0
    3.4013    0.9892    0.0000 C   0  0  0  0  0  0  0  0  0  0  0  0
    3.5823    2.7118    0.0000 C   0  0  0  0  0  0  0  0  0  0  0  0
    2.4067    1.0938    0.0000 C   0  0  0  0  0  0  0  0  0  0  0  0
    2.5878    2.8163    0.0000 C   0  0  0  0  0  0  0  0  0  0  0  0
    2.0000    2.0073    0.0000 C   0  0  0  0  0  0  0  0  0  0  0  0
    8.2050    0.1977    0.0000 H   0  0  0  0  0  0  0  0  0  0  0  0
    6.8021   -2.2323    0.0000 H   0  0  0  0  0  0  0  0  0  0  0  0
    8.2050   -3.0423    0.0000 H   0  0  0  0  0  0  0  0  0  0  0  0
   10.2099   -0.0282    0.0000 H   0  0  0  0  0  0  0  0  0  0  0  0
   10.2099   -2.8163    0.0000 H   0  0  0  0  0  0  0  0  0  0  0  0
    5.4305   -1.4354    0.0000 H   0  0  0  0  0  0  0  0  0  0  0  0
    5.3480    2.1953    0.0000 H   0  0  0  0  0  0  0  0  0  0  0  0
    3.6534    0.4228    0.0000 H   0  0  0  0  0  0  0  0  0  0  0  0
    3.9467    3.2134    0.0000 H   0  0  0  0  0  0  0  0  0  0  0  0
    2.0423    0.5922    0.0000 H   0  0  0  0  0  0  0  0  0  0  0  0
    2.3356    3.3827    0.0000 H   0  0  0  0  0  0  0  0  0  0  0  0
    1.3834    2.0721    0.0000 H   0  0  0  0  0  0  0  0  0  0  0  0
  1 14  1  0  0  0  0
  1 15  1  0  0  0  0
  2  5  1  0  0  0  0
  2  8  1  0  0  0  0
  2 26  1  0  0  0  0
  3 10  1  0  0  0  0
  3 14  2  0  0  0  0
  4 14  1  0  0  0  0
  4 16  1  0  0  0  0
  4 28  1  0  0  0  0
  5 13  2  0  0  0  0
  6  9  2  0  0  0  0
  6 10  1  0  0  0  0
  6 11  1  0  0  0  0
  7  8  2  0  0  0  0
  7  9  1  0  0  0  0
  7 13  1  0  0  0  0
  8 12  1  0  0  0  0
  9 22  1  0  0  0  0
 10 15  2  0  0  0  0
 11 12  2  0  0  0  0
 11 23  1  0  0  0  0
 12 24  1  0  0  0  0
 13 25  1  0  0  0  0
 15 27  1  0  0  0  0
 16 17  2  0  0  0  0
 16 18  1  0  0  0  0
 17 19  1  0  0  0  0
 17 29  1  0  0  0  0
 18 20  2  0  0  0  0
 18 30  1  0  0  0  0
 19 21  2  0  0  0  0
 19 31  1  0  0  0  0
 20 21  1  0  0  0  0
 20 32  1  0  0  0  0
 21 33  1  0  0  0  0
M  END
> <PUBCHEM_COMPOUND_CID>
25167075

> <PUBCHEM_COMPOUND_CANONICALIZED>
1

> <PUBCHEM_CACTVS_COMPLEXITY>
347

> <PUBCHEM_CACTVS_HBOND_ACCEPTOR>
4

> <PUBCHEM_CACTVS_HBOND_DONOR>
2

> <PUBCHEM_CACTVS_ROTATABLE_BOND>
3

> <PUBCHEM_CACTVS_SUBSKEYS>
AAADccB7gABAAAAAAAAAAAAAAAAAAWLAAAAwYAAAAAAAAFgB/AAAHAQYAAAADAjFXgS90fLrEAimAzRnZACS9KlhijkZuTQwZJiIIKLg2dGEpAhomAJIyCcQgMAOCAACAAACAAAQAAQAAAQAAAAAAAAAAA==

> <PUBCHEM_IUPAC_OPENEYE_NAME>
4-(1H-indazol-5-yl)-N-phenyl-thiazol-2-amine

> <PUBCHEM_IUPAC_CAS_NAME>
4-(1H-indazol-5-yl)-N-phenyl-2-thiazolamine

> <PUBCHEM_IUPAC_NAME_MARKUP>
4-(1<I>H</I>-indazol-5-yl)-<I>N</I>-phenyl-1,3-thiazol-2-amine

> <PUBCHEM_IUPAC_NAME>
4-(1H-indazol-5-yl)-N-phenyl-1,3-thiazol-2-amine

> <PUBCHEM_IUPAC_SYSTEMATIC_NAME>
4-(1H-indazol-5-yl)-N-phenyl-1,3-thiazol-2-amine

> <PUBCHEM_IUPAC_TRADITIONAL_NAME>
[4-(1H-indazol-5-yl)thiazol-2-yl]-phenyl-amine

> <PUBCHEM_IUPAC_INCHI>
InChI=1S/C16H12N4S/c1-2-4-13(5-3-1)18-16-19-15(10-21-16)11-6-7-14-12(8-11)9-17-20-14/h1-10H,(H,17,20)(H,18,19)

> <PUBCHEM_IUPAC_INCHIKEY>
CTJAMSGCMYAVCZ-UHFFFAOYSA-N

> <PUBCHEM_XLOGP3_AA>
4.1

> <PUBCHEM_EXACT_MASS>
292.07826757

> <PUBCHEM_MOLECULAR_FORMULA>
C16H12N4S

> <PUBCHEM_MOLECULAR_WEIGHT>
292.4

> <PUBCHEM_SMILES>
C1=CC=C(C=C1)NC2=NC(=CS2)C3=CC4=C(C=C3)NN=C4

> <PUBCHEM_OPENEYE_CAN_SMILES>
C1=CC=C(C=C1)NC2=NC(=CS2)C3=CC4=C(C=C3)NN=C4

> <PUBCHEM_OPENEYE_ISO_SMILES>
C1=CC=C(C=C1)NC2=NC(=CS2)C3=CC4=C(C=C3)NN=C4

> <PUBCHEM_CACTVS_TPSA>
81.8

> <PUBCHEM_MONOISOTOPIC_WEIGHT>
292.07826757

> <PUBCHEM_TOTAL_CHARGE>
0

> <PUBCHEM_HEAVY_ATOM_COUNT>
21

> <PUBCHEM_ATOM_DEF_STEREO_COUNT>
0

> <PUBCHEM_ATOM_UDEF_STEREO_COUNT>
0

> <PUBCHEM_BOND_DEF_STEREO_COUNT>
0

> <PUBCHEM_BOND_UDEF_STEREO_COUNT>
0

> <PUBCHEM_ISOTOPIC_ATOM_COUNT>
0

> <PUBCHEM_COMPONENT_COUNT>
1

> <PUBCHEM_CACTVS_TAUTO_COUNT>
-1

> <PUBCHEM_COORDINATE_TYPE>
1
5
255

> <PUBCHEM_BONDANNOTATIONS>
1  14  8
1  15  8
10  15  8
11  12  8
16  17  8
16  18  8
17  19  8
18  20  8
19  21  8
2  5  8
2  8  8
20  21  8
3  10  8
3  14  8
5  13  8
6  11  8
6  9  8
7  13  8
7  8  8
7  9  8
8  12  8

$$$$
