49830461
  -OEChem-03202501132D

 50 53  0     0  0  0  0  0  0999 V2000
    6.3690   -1.7652    0.0000 O   0  0  0  0  0  0  0  0  0  0  0  0
    4.6748   -1.4050    0.0000 N   0  0  0  0  0  0  0  0  0  0  0  0
    5.1646    0.6253    0.0000 N   0  0  0  0  0  0  0  0  0  0  0  0
    5.6646    1.4913    0.0000 N   0  0  0  0  0  0  0  0  0  0  0  0
    6.6428    1.2834    0.0000 N   0  0  0  0  0  0  0  0  0  0  0  0
   10.2916   -1.5159    0.0000 N   0  0  0  0  0  0  0  0  0  0  0  0
   10.8752   -0.7111    0.0000 N   0  0  0  0  0  0  0  0  0  0  0  0
    4.4669   -2.3832    0.0000 C   0  0  0  0  0  0  0  0  0  0  0  0
    5.8338   -0.1179    0.0000 C   0  0  0  0  0  0  0  0  0  0  0  0
    6.7473    0.2889    0.0000 C   0  0  0  0  0  0  0  0  0  0  0  0
    5.6258   -1.0960    0.0000 C   0  0  0  0  0  0  0  0  0  0  0  0
    4.1701    0.5207    0.0000 C   0  0  0  0  0  0  0  0  0  0  0  0
    7.6133   -0.2111    0.0000 C   0  0  0  0  0  0  0  0  0  0  0  0
    3.5158   -2.6922    0.0000 C   0  0  0  0  0  0  0  0  0  0  0  0
    5.2100   -3.0523    0.0000 C   0  0  0  0  0  0  0  0  0  0  0  0
    3.9316   -0.7359    0.0000 C   0  0  0  0  0  0  0  0  0  0  0  0
    8.4793    0.2889    0.0000 C   0  0  0  0  0  0  0  0  0  0  0  0
    3.5823    1.3298    0.0000 C   0  0  0  0  0  0  0  0  0  0  0  0
    9.3454   -0.2111    0.0000 C   0  0  0  0  0  0  0  0  0  0  0  0
    7.6133   -1.2111    0.0000 C   0  0  0  0  0  0  0  0  0  0  0  0
    9.3454   -1.2111    0.0000 C   0  0  0  0  0  0  0  0  0  0  0  0
    8.4793   -1.7111    0.0000 C   0  0  0  0  0  0  0  0  0  0  0  0
    3.9890    2.2433    0.0000 C   0  0  0  0  0  0  0  0  0  0  0  0
    2.5878    1.2252    0.0000 C   0  0  0  0  0  0  0  0  0  0  0  0
   10.2916    0.0936    0.0000 C   0  0  0  0  0  0  0  0  0  0  0  0
    3.4013    3.0523    0.0000 C   0  0  0  0  0  0  0  0  0  0  0  0
    2.0000    2.0342    0.0000 C   0  0  0  0  0  0  0  0  0  0  0  0
    2.4067    2.9478    0.0000 C   0  0  0  0  0  0  0  0  0  0  0  0
    5.0565   -2.1916    0.0000 H   0  0  0  0  0  0  0  0  0  0  0  0
    3.6128    0.2490    0.0000 H   0  0  0  0  0  0  0  0  0  0  0  0
    4.3410   -0.0752    0.0000 H   0  0  0  0  0  0  0  0  0  0  0  0
    3.3242   -2.1026    0.0000 H   0  0  0  0  0  0  0  0  0  0  0  0
    2.9261   -2.8838    0.0000 H   0  0  0  0  0  0  0  0  0  0  0  0
    3.7074   -3.2819    0.0000 H   0  0  0  0  0  0  0  0  0  0  0  0
    4.7951   -3.5131    0.0000 H   0  0  0  0  0  0  0  0  0  0  0  0
    5.6708   -3.4672    0.0000 H   0  0  0  0  0  0  0  0  0  0  0  0
    5.6249   -2.5916    0.0000 H   0  0  0  0  0  0  0  0  0  0  0  0
    4.3465   -0.2752    0.0000 H   0  0  0  0  0  0  0  0  0  0  0  0
    3.4709   -0.3210    0.0000 H   0  0  0  0  0  0  0  0  0  0  0  0
    3.5168   -1.1967    0.0000 H   0  0  0  0  0  0  0  0  0  0  0  0
    8.4793    0.9089    0.0000 H   0  0  0  0  0  0  0  0  0  0  0  0
    7.0764   -1.5211    0.0000 H   0  0  0  0  0  0  0  0  0  0  0  0
    8.4793   -2.3311    0.0000 H   0  0  0  0  0  0  0  0  0  0  0  0
    4.6056    2.3081    0.0000 H   0  0  0  0  0  0  0  0  0  0  0  0
    2.3356    0.6588    0.0000 H   0  0  0  0  0  0  0  0  0  0  0  0
   10.4842    0.6829    0.0000 H   0  0  0  0  0  0  0  0  0  0  0  0
   10.4842   -2.1052    0.0000 H   0  0  0  0  0  0  0  0  0  0  0  0
    3.6534    3.6187    0.0000 H   0  0  0  0  0  0  0  0  0  0  0  0
    1.3834    1.9694    0.0000 H   0  0  0  0  0  0  0  0  0  0  0  0
    2.0423    3.4494    0.0000 H   0  0  0  0  0  0  0  0  0  0  0  0
  1 11  2  0  0  0  0
  2  8  1  0  0  0  0
  2 11  1  0  0  0  0
  2 16  1  0  0  0  0
  3  4  1  0  0  0  0
  3  9  1  0  0  0  0
  3 12  1  0  0  0  0
  4  5  2  0  0  0  0
  5 10  1  0  0  0  0
  6  7  1  0  0  0  0
  6 21  1  0  0  0  0
  6 47  1  0  0  0  0
  7 25  2  0  0  0  0
  8 14  1  0  0  0  0
  8 15  1  0  0  0  0
  8 29  1  0  0  0  0
  9 10  2  0  0  0  0
  9 11  1  0  0  0  0
 10 13  1  0  0  0  0
 12 18  1  0  0  0  0
 12 30  1  0  0  0  0
 12 31  1  0  0  0  0
 13 17  2  0  0  0  0
 13 20  1  0  0  0  0
 14 32  1  0  0  0  0
 14 33  1  0  0  0  0
 14 34  1  0  0  0  0
 15 35  1  0  0  0  0
 15 36  1  0  0  0  0
 15 37  1  0  0  0  0
 16 38  1  0  0  0  0
 16 39  1  0  0  0  0
 16 40  1  0  0  0  0
 17 19  1  0  0  0  0
 17 41  1  0  0  0  0
 18 23  2  0  0  0  0
 18 24  1  0  0  0  0
 19 21  2  0  0  0  0
 19 25  1  0  0  0  0
 20 22  2  0  0  0  0
 20 42  1  0  0  0  0
 21 22  1  0  0  0  0
 22 43  1  0  0  0  0
 23 26  1  0  0  0  0
 23 44  1  0  0  0  0
 24 27  2  0  0  0  0
 24 45  1  0  0  0  0
 25 46  1  0  0  0  0
 26 28  2  0  0  0  0
 26 48  1  0  0  0  0
 27 28  1  0  0  0  0
 27 49  1  0  0  0  0
 28 50  1  0  0  0  0
M  END
> <PUBCHEM_COMPOUND_CID>
49830461

> <PUBCHEM_COMPOUND_CANONICALIZED>
1

> <PUBCHEM_CACTVS_COMPLEXITY>
537

> <PUBCHEM_CACTVS_HBOND_ACCEPTOR>
4

> <PUBCHEM_CACTVS_HBOND_DONOR>
1

> <PUBCHEM_CACTVS_ROTATABLE_BOND>
5

> <PUBCHEM_CACTVS_SUBSKEYS>
AAADceB7oAAAAAAAAAAAAAAAAAAAAWLAAAAwYAAAAAAAAFgB/AAAHgAYAAAADCjBngQ+wPNrAACqAzV3VACSBAQnkgAY+SG4dNgIYLrA0fGUpYhgngDIyUcYiMCOCAACAAACAAAQAAQAAAQAAAAAAAAAAA==

> <PUBCHEM_IUPAC_OPENEYE_NAME>
3-benzyl-5-(1H-indazol-5-yl)-N-isopropyl-N-methyl-triazole-4-carboxamide

> <PUBCHEM_IUPAC_CAS_NAME>
5-(1H-indazol-5-yl)-N-methyl-3-(phenylmethyl)-N-propan-2-yl-4-triazolecarboxamide

> <PUBCHEM_IUPAC_NAME_MARKUP>
3-benzyl-5-(1<I>H</I>-indazol-5-yl)-<I>N</I>-methyl-<I>N</I>-propan-2-yltriazole-4-carboxamide

> <PUBCHEM_IUPAC_NAME>
3-benzyl-5-(1H-indazol-5-yl)-N-methyl-N-propan-2-yltriazole-4-carboxamide

> <PUBCHEM_IUPAC_SYSTEMATIC_NAME>
5-(1H-indazol-5-yl)-N-methyl-3-(phenylmethyl)-N-propan-2-yl-1,2,3-triazole-4-carboxamide

> <PUBCHEM_IUPAC_TRADITIONAL_NAME>
3-benzyl-5-(1H-indazol-5-yl)-N-isopropyl-N-methyl-triazole-4-carboxamide

> <PUBCHEM_IUPAC_INCHI>
InChI=1S/C21H22N6O/c1-14(2)26(3)21(28)20-19(16-9-10-18-17(11-16)12-22-23-18)24-25-27(20)13-15-7-5-4-6-8-15/h4-12,14H,13H2,1-3H3,(H,22,23)

> <PUBCHEM_IUPAC_INCHIKEY>
UPPGGRZNGRFDAU-UHFFFAOYSA-N

> <PUBCHEM_XLOGP3_AA>
3.2

> <PUBCHEM_EXACT_MASS>
374.18550935

> <PUBCHEM_MOLECULAR_FORMULA>
C21H22N6O

> <PUBCHEM_MOLECULAR_WEIGHT>
374.4

> <PUBCHEM_SMILES>
CC(C)N(C)C(=O)C1=C(N=NN1CC2=CC=CC=C2)C3=CC4=C(C=C3)NN=C4

> <PUBCHEM_OPENEYE_CAN_SMILES>
CC(C)N(C)C(=O)C1=C(N=NN1CC2=CC=CC=C2)C3=CC4=C(C=C3)NN=C4

> <PUBCHEM_OPENEYE_ISO_SMILES>
CC(C)N(C)C(=O)C1=C(N=NN1CC2=CC=CC=C2)C3=CC4=C(C=C3)NN=C4

> <PUBCHEM_CACTVS_TPSA>
79.7

> <PUBCHEM_MONOISOTOPIC_WEIGHT>
374.18550935

> <PUBCHEM_TOTAL_CHARGE>
0

> <PUBCHEM_HEAVY_ATOM_COUNT>
28

> <PUBCHEM_ATOM_DEF_STEREO_COUNT>
0

> <PUBCHEM_ATOM_UDEF_STEREO_COUNT>
0

> <PUBCHEM_BOND_DEF_STEREO_COUNT>
0

> <PUBCHEM_BOND_UDEF_STEREO_COUNT>
0

> <PUBCHEM_ISOTOPIC_ATOM_COUNT>
0

> <PUBCHEM_COMPONENT_COUNT>
1

> <PUBCHEM_CACTVS_TAUTO_COUNT>
-1

> <PUBCHEM_COORDINATE_TYPE>
1
5
255

> <PUBCHEM_BONDANNOTATIONS>
13  17  8
13  20  8
17  19  8
18  23  8
18  24  8
19  21  8
19  25  8
20  22  8
21  22  8
23  26  8
24  27  8
26  28  8
27  28  8
3  4  8
3  9  8
4  5  8
5  10  8
6  21  8
6  7  8
7  25  8
9  10  8

$$$$
