73332
  -OEChem-03202506592D

 41 41  0     1  0  0  0  0  0999 V2000
    6.6973    2.1231    0.0000 Cl  0  0  0  0  0  0  0  0  0  0  0  0
    6.6973    4.6468    0.0000 Cl  0  0  0  0  0  0  0  0  0  0  0  0
    1.4766    3.6546    0.0000 S   0  0  0  0  0  0  0  0  0  0  0  0
    0.4766    3.6546    0.0000 O   0  0  0  0  0  0  0  0  0  0  0  0
    2.4766    3.6546    0.0000 O   0  0  0  0  0  0  0  0  0  0  0  0
    1.4766    4.6546    0.0000 N   0  0  3  0  0  0  0  0  0  0  0  0
    1.4766    6.6546    0.0000 N   0  0  0  0  0  0  0  0  0  0  0  0
    4.1426    1.1338    0.0000 N   0  0  0  0  0  0  0  0  0  0  0  0
    2.3426    5.1546    0.0000 C   0  0  3  0  0  0  0  0  0  0  0  0
    0.6106    5.1546    0.0000 C   0  0  0  0  0  0  0  0  0  0  0  0
    2.3426    6.1546    0.0000 C   0  0  0  0  0  0  0  0  0  0  0  0
    0.6106    6.1546    0.0000 C   0  0  0  0  0  0  0  0  0  0  0  0
    3.2087    4.6546    0.0000 C   0  0  0  0  0  0  0  0  0  0  0  0
    1.4766    2.6546    0.0000 C   0  0  0  0  0  0  0  0  0  0  0  0
    2.3426    2.1546    0.0000 C   0  0  0  0  0  0  0  0  0  0  0  0
    0.6106    2.1546    0.0000 C   0  0  0  0  0  0  0  0  0  0  0  0
    2.3426    1.1546    0.0000 C   0  0  0  0  0  0  0  0  0  0  0  0
    0.6106    1.1546    0.0000 C   0  0  0  0  0  0  0  0  0  0  0  0
    3.2366    2.6893    0.0000 C   0  0  0  0  0  0  0  0  0  0  0  0
    1.4766    0.6546    0.0000 C   0  0  0  0  0  0  0  0  0  0  0  0
    3.2366    0.6200    0.0000 C   0  0  0  0  0  0  0  0  0  0  0  0
    4.1426    2.1754    0.0000 C   0  0  0  0  0  0  0  0  0  0  0  0
    2.3426    4.5346    0.0000 H   0  0  0  0  0  0  0  0  0  0  0  0
    0.0000    5.2623    0.0000 H   0  0  0  0  0  0  0  0  0  0  0  0
    0.3985    4.5720    0.0000 H   0  0  0  0  0  0  0  0  0  0  0  0
    2.9532    6.0470    0.0000 H   0  0  0  0  0  0  0  0  0  0  0  0
    2.5547    6.7372    0.0000 H   0  0  0  0  0  0  0  0  0  0  0  0
    0.3985    6.7372    0.0000 H   0  0  0  0  0  0  0  0  0  0  0  0
    0.0000    6.0470    0.0000 H   0  0  0  0  0  0  0  0  0  0  0  0
    1.4766    7.2746    0.0000 H   0  0  0  0  0  0  0  0  0  0  0  0
    2.8987    4.1177    0.0000 H   0  0  0  0  0  0  0  0  0  0  0  0
    3.7456    4.3446    0.0000 H   0  0  0  0  0  0  0  0  0  0  0  0
    3.5187    5.1916    0.0000 H   0  0  0  0  0  0  0  0  0  0  0  0
    0.0736    2.4646    0.0000 H   0  0  0  0  0  0  0  0  0  0  0  0
    0.0736    0.8446    0.0000 H   0  0  0  0  0  0  0  0  0  0  0  0
    3.2294    3.3092    0.0000 H   0  0  0  0  0  0  0  0  0  0  0  0
    1.4766    0.0346    0.0000 H   0  0  0  0  0  0  0  0  0  0  0  0
    3.2294    0.0000    0.0000 H   0  0  0  0  0  0  0  0  0  0  0  0
    4.6784    2.4875    0.0000 H   0  0  0  0  0  0  0  0  0  0  0  0
    7.6973    2.1231    0.0000 H   0  0  0  0  0  0  0  0  0  0  0  0
    7.6973    4.6468    0.0000 H   0  0  0  0  0  0  0  0  0  0  0  0
  1 40  1  0  0  0  0
  2 41  1  0  0  0  0
  3  4  2  0  0  0  0
  3  5  2  0  0  0  0
  3  6  1  0  0  0  0
  3 14  1  0  0  0  0
  6  9  1  0  0  0  0
  6 10  1  0  0  0  0
  7 11  1  0  0  0  0
  7 12  1  0  0  0  0
  7 30  1  0  0  0  0
  8 21  2  0  0  0  0
  8 22  1  0  0  0  0
  9 11  1  0  0  0  0
  9 13  1  0  0  0  0
  9 23  1  0  0  0  0
 10 12  1  0  0  0  0
 10 24  1  0  0  0  0
 10 25  1  0  0  0  0
 11 26  1  0  0  0  0
 11 27  1  0  0  0  0
 12 28  1  0  0  0  0
 12 29  1  0  0  0  0
 13 31  1  0  0  0  0
 13 32  1  0  0  0  0
 13 33  1  0  0  0  0
 14 15  1  0  0  0  0
 14 16  2  0  0  0  0
 15 17  2  0  0  0  0
 15 19  1  0  0  0  0
 16 18  1  0  0  0  0
 16 34  1  0  0  0  0
 17 20  1  0  0  0  0
 17 21  1  0  0  0  0
 18 20  2  0  0  0  0
 18 35  1  0  0  0  0
 19 22  2  0  0  0  0
 19 36  1  0  0  0  0
 20 37  1  0  0  0  0
 21 38  1  0  0  0  0
 22 39  1  0  0  0  0
M  END
> <PUBCHEM_COMPOUND_CID>
73332

> <PUBCHEM_COMPOUND_CANONICALIZED>
1

> <PUBCHEM_CACTVS_COMPLEXITY>
434

> <PUBCHEM_CACTVS_HBOND_ACCEPTOR>
5

> <PUBCHEM_CACTVS_HBOND_DONOR>
3

> <PUBCHEM_CACTVS_ROTATABLE_BOND>
2

> <PUBCHEM_CACTVS_SUBSKEYS>
AAADceBzMABGAAAAAAAAAAAAAAAAAAAAAAA8WIAAAAAAAACx8AAAHAQQQAAADCjBWgQ+gdLIEAKgAjBnRHDCgDAxAiAI2Lg4ZJgIYOLAkZGUIAhgkADIyAcQgIAOgAAAgAAUAAAAAAEAACgAAAAAAAAAAA==

> <PUBCHEM_IUPAC_OPENEYE_NAME>
5-(2-methylpiperazin-1-yl)sulfonylisoquinoline;dihydrochloride

> <PUBCHEM_IUPAC_CAS_NAME>
5-[(2-methyl-1-piperazinyl)sulfonyl]isoquinoline;dihydrochloride

> <PUBCHEM_IUPAC_NAME_MARKUP>
5-(2-methylpiperazin-1-yl)sulfonylisoquinoline;dihydrochloride

> <PUBCHEM_IUPAC_NAME>
5-(2-methylpiperazin-1-yl)sulfonylisoquinoline;dihydrochloride

> <PUBCHEM_IUPAC_SYSTEMATIC_NAME>
5-(2-methylpiperazin-1-yl)sulfonylisoquinoline;dihydrochloride

> <PUBCHEM_IUPAC_TRADITIONAL_NAME>
5-(2-methylpiperazino)sulfonylisoquinoline;dihydrochloride

> <PUBCHEM_IUPAC_INCHI>
InChI=1S/C14H17N3O2S.2ClH/c1-11-9-16-7-8-17(11)20(18,19)14-4-2-3-12-10-15-6-5-13(12)14;;/h2-6,10-11,16H,7-9H2,1H3;2*1H

> <PUBCHEM_IUPAC_INCHIKEY>
OARGPFMFRLLKPF-UHFFFAOYSA-N

> <PUBCHEM_EXACT_MASS>
363.0575034

> <PUBCHEM_MOLECULAR_FORMULA>
C14H19Cl2N3O2S

> <PUBCHEM_MOLECULAR_WEIGHT>
364.3

> <PUBCHEM_SMILES>
CC1CNCCN1S(=O)(=O)C2=CC=CC3=C2C=CN=C3.Cl.Cl

> <PUBCHEM_OPENEYE_CAN_SMILES>
CC1CNCCN1S(=O)(=O)C2=CC=CC3=C2C=CN=C3.Cl.Cl

> <PUBCHEM_OPENEYE_ISO_SMILES>
CC1CNCCN1S(=O)(=O)C2=CC=CC3=C2C=CN=C3.Cl.Cl

> <PUBCHEM_CACTVS_TPSA>
70.7

> <PUBCHEM_MONOISOTOPIC_WEIGHT>
363.0575034

> <PUBCHEM_TOTAL_CHARGE>
0

> <PUBCHEM_HEAVY_ATOM_COUNT>
22

> <PUBCHEM_ATOM_DEF_STEREO_COUNT>
0

> <PUBCHEM_ATOM_UDEF_STEREO_COUNT>
1

> <PUBCHEM_BOND_DEF_STEREO_COUNT>
0

> <PUBCHEM_BOND_UDEF_STEREO_COUNT>
0

> <PUBCHEM_ISOTOPIC_ATOM_COUNT>
0

> <PUBCHEM_COMPONENT_COUNT>
3

> <PUBCHEM_CACTVS_TAUTO_COUNT>
-1

> <PUBCHEM_COORDINATE_TYPE>
1
5
255

> <PUBCHEM_BONDANNOTATIONS>
14  15  8
14  16  8
15  17  8
15  19  8
16  18  8
17  20  8
17  21  8
18  20  8
19  22  8
8  21  8
8  22  8
9  13  3

$$$$
