49830434
  -OEChem-03202502422D

 46 50  0     0  0  0  0  0  0999 V2000
    5.0021   -3.5414    0.0000 F   0  0  0  0  0  0  0  0  0  0  0  0
    5.1646    1.1143    0.0000 N   0  0  0  0  0  0  0  0  0  0  0  0
    6.6428    1.7725    0.0000 N   0  0  0  0  0  0  0  0  0  0  0  0
    5.6646    1.9804    0.0000 N   0  0  0  0  0  0  0  0  0  0  0  0
   10.2916   -1.0268    0.0000 N   0  0  0  0  0  0  0  0  0  0  0  0
   10.8752   -0.2221    0.0000 N   0  0  0  0  0  0  0  0  0  0  0  0
   10.6022    1.5332    0.0000 N   0  0  0  0  0  0  0  0  0  0  0  0
    5.8338    0.3712    0.0000 C   0  0  0  0  0  0  0  0  0  0  0  0
    6.7473    0.7779    0.0000 C   0  0  0  0  0  0  0  0  0  0  0  0
    7.6133    0.2779    0.0000 C   0  0  0  0  0  0  0  0  0  0  0  0
    4.1701    1.0098    0.0000 C   0  0  0  0  0  0  0  0  0  0  0  0
    5.6258   -0.6070    0.0000 C   0  0  0  0  0  0  0  0  0  0  0  0
    9.3454    0.2779    0.0000 C   0  0  0  0  0  0  0  0  0  0  0  0
    8.4793    0.7779    0.0000 C   0  0  0  0  0  0  0  0  0  0  0  0
    9.3454   -0.7221    0.0000 C   0  0  0  0  0  0  0  0  0  0  0  0
    7.6133   -0.7221    0.0000 C   0  0  0  0  0  0  0  0  0  0  0  0
    3.5823    1.8188    0.0000 C   0  0  0  0  0  0  0  0  0  0  0  0
    8.4793   -1.2221    0.0000 C   0  0  0  0  0  0  0  0  0  0  0  0
   10.2916    0.5827    0.0000 C   0  0  0  0  0  0  0  0  0  0  0  0
    4.6748   -0.9160    0.0000 C   0  0  0  0  0  0  0  0  0  0  0  0
    6.3690   -1.2761    0.0000 C   0  0  0  0  0  0  0  0  0  0  0  0
    3.9890    2.7324    0.0000 C   0  0  0  0  0  0  0  0  0  0  0  0
    2.5878    1.7143    0.0000 C   0  0  0  0  0  0  0  0  0  0  0  0
    4.4669   -1.8941    0.0000 C   0  0  0  0  0  0  0  0  0  0  0  0
    6.1611   -2.2542    0.0000 C   0  0  0  0  0  0  0  0  0  0  0  0
    5.2100   -2.5632    0.0000 C   0  0  0  0  0  0  0  0  0  0  0  0
    3.4013    3.5414    0.0000 C   0  0  0  0  0  0  0  0  0  0  0  0
    2.0000    2.5233    0.0000 C   0  0  0  0  0  0  0  0  0  0  0  0
    2.4067    3.4369    0.0000 C   0  0  0  0  0  0  0  0  0  0  0  0
    3.6128    0.7380    0.0000 H   0  0  0  0  0  0  0  0  0  0  0  0
    4.3410    0.4138    0.0000 H   0  0  0  0  0  0  0  0  0  0  0  0
    8.4793    1.3979    0.0000 H   0  0  0  0  0  0  0  0  0  0  0  0
    7.0764   -1.0321    0.0000 H   0  0  0  0  0  0  0  0  0  0  0  0
    8.4793   -1.8421    0.0000 H   0  0  0  0  0  0  0  0  0  0  0  0
    4.2140   -0.5011    0.0000 H   0  0  0  0  0  0  0  0  0  0  0  0
    6.9586   -1.0845    0.0000 H   0  0  0  0  0  0  0  0  0  0  0  0
   10.4842   -1.6161    0.0000 H   0  0  0  0  0  0  0  0  0  0  0  0
    4.6056    2.7972    0.0000 H   0  0  0  0  0  0  0  0  0  0  0  0
    2.3356    1.1479    0.0000 H   0  0  0  0  0  0  0  0  0  0  0  0
    3.8772   -2.0857    0.0000 H   0  0  0  0  0  0  0  0  0  0  0  0
    6.6218   -2.6691    0.0000 H   0  0  0  0  0  0  0  0  0  0  0  0
    3.6534    4.1078    0.0000 H   0  0  0  0  0  0  0  0  0  0  0  0
    1.3834    2.4585    0.0000 H   0  0  0  0  0  0  0  0  0  0  0  0
   11.2089    1.6610    0.0000 H   0  0  0  0  0  0  0  0  0  0  0  0
   10.1882    1.9946    0.0000 H   0  0  0  0  0  0  0  0  0  0  0  0
    2.0423    3.9385    0.0000 H   0  0  0  0  0  0  0  0  0  0  0  0
  1 26  1  0  0  0  0
  2  4  1  0  0  0  0
  2  8  1  0  0  0  0
  2 11  1  0  0  0  0
  3  4  2  0  0  0  0
  3  9  1  0  0  0  0
  5  6  1  0  0  0  0
  5 15  1  0  0  0  0
  5 37  1  0  0  0  0
  6 19  2  0  0  0  0
  7 19  1  0  0  0  0
  7 44  1  0  0  0  0
  7 45  1  0  0  0  0
  8  9  2  0  0  0  0
  8 12  1  0  0  0  0
  9 10  1  0  0  0  0
 10 14  2  0  0  0  0
 10 16  1  0  0  0  0
 11 17  1  0  0  0  0
 11 30  1  0  0  0  0
 11 31  1  0  0  0  0
 12 20  2  0  0  0  0
 12 21  1  0  0  0  0
 13 14  1  0  0  0  0
 13 15  2  0  0  0  0
 13 19  1  0  0  0  0
 14 32  1  0  0  0  0
 15 18  1  0  0  0  0
 16 18  2  0  0  0  0
 16 33  1  0  0  0  0
 17 22  2  0  0  0  0
 17 23  1  0  0  0  0
 18 34  1  0  0  0  0
 20 24  1  0  0  0  0
 20 35  1  0  0  0  0
 21 25  2  0  0  0  0
 21 36  1  0  0  0  0
 22 27  1  0  0  0  0
 22 38  1  0  0  0  0
 23 28  2  0  0  0  0
 23 39  1  0  0  0  0
 24 26  2  0  0  0  0
 24 40  1  0  0  0  0
 25 26  1  0  0  0  0
 25 41  1  0  0  0  0
 27 29  2  0  0  0  0
 27 42  1  0  0  0  0
 28 29  1  0  0  0  0
 28 43  1  0  0  0  0
 29 46  1  0  0  0  0
M  END
> <PUBCHEM_COMPOUND_CID>
49830434

> <PUBCHEM_COMPOUND_CANONICALIZED>
1

> <PUBCHEM_CACTVS_COMPLEXITY>
535

> <PUBCHEM_CACTVS_HBOND_ACCEPTOR>
5

> <PUBCHEM_CACTVS_HBOND_DONOR>
2

> <PUBCHEM_CACTVS_ROTATABLE_BOND>
4

> <PUBCHEM_CACTVS_SUBSKEYS>
AAADceB7gQAAAAAAAAAAAAAAAAAAAWLAAAAwYMAAAAAAAFgB/AAAHQAYAAAADAjBHgwx8PJrAACiAyZiZACSBAYhkgAc+SA4dJgIYKLA0dGUpAhwmADIyAcQgMAOCAACAAACAAAQAAQAAAQAAAAAAAAAAA==

> <PUBCHEM_IUPAC_OPENEYE_NAME>
5-[1-benzyl-5-(4-fluorophenyl)triazol-4-yl]-1H-indazol-3-amine

> <PUBCHEM_IUPAC_CAS_NAME>
5-[5-(4-fluorophenyl)-1-(phenylmethyl)-4-triazolyl]-1H-indazol-3-amine

> <PUBCHEM_IUPAC_NAME_MARKUP>
5-[1-benzyl-5-(4-fluorophenyl)triazol-4-yl]-1<I>H</I>-indazol-3-amine

> <PUBCHEM_IUPAC_NAME>
5-[1-benzyl-5-(4-fluorophenyl)triazol-4-yl]-1H-indazol-3-amine

> <PUBCHEM_IUPAC_SYSTEMATIC_NAME>
5-[5-(4-fluorophenyl)-1-(phenylmethyl)-1,2,3-triazol-4-yl]-1H-indazol-3-amine

> <PUBCHEM_IUPAC_TRADITIONAL_NAME>
[5-[1-benzyl-5-(4-fluorophenyl)triazol-4-yl]-1H-indazol-3-yl]amine

> <PUBCHEM_IUPAC_INCHI>
InChI=1S/C22H17FN6/c23-17-9-6-15(7-10-17)21-20(16-8-11-19-18(12-16)22(24)27-25-19)26-28-29(21)13-14-4-2-1-3-5-14/h1-12H,13H2,(H3,24,25,27)

> <PUBCHEM_IUPAC_INCHIKEY>
KCKXYZOBGBJZEG-UHFFFAOYSA-N

> <PUBCHEM_XLOGP3_AA>
4

> <PUBCHEM_EXACT_MASS>
384.14987273

> <PUBCHEM_MOLECULAR_FORMULA>
C22H17FN6

> <PUBCHEM_MOLECULAR_WEIGHT>
384.4

> <PUBCHEM_SMILES>
C1=CC=C(C=C1)CN2C(=C(N=N2)C3=CC4=C(C=C3)NN=C4N)C5=CC=C(C=C5)F

> <PUBCHEM_OPENEYE_CAN_SMILES>
C1=CC=C(C=C1)CN2C(=C(N=N2)C3=CC4=C(C=C3)NN=C4N)C5=CC=C(C=C5)F

> <PUBCHEM_OPENEYE_ISO_SMILES>
C1=CC=C(C=C1)CN2C(=C(N=N2)C3=CC4=C(C=C3)NN=C4N)C5=CC=C(C=C5)F

> <PUBCHEM_CACTVS_TPSA>
85.4

> <PUBCHEM_MONOISOTOPIC_WEIGHT>
384.14987273

> <PUBCHEM_TOTAL_CHARGE>
0

> <PUBCHEM_HEAVY_ATOM_COUNT>
29

> <PUBCHEM_ATOM_DEF_STEREO_COUNT>
0

> <PUBCHEM_ATOM_UDEF_STEREO_COUNT>
0

> <PUBCHEM_BOND_DEF_STEREO_COUNT>
0

> <PUBCHEM_BOND_UDEF_STEREO_COUNT>
0

> <PUBCHEM_ISOTOPIC_ATOM_COUNT>
0

> <PUBCHEM_COMPONENT_COUNT>
1

> <PUBCHEM_CACTVS_TAUTO_COUNT>
-1

> <PUBCHEM_COORDINATE_TYPE>
1
5
255

> <PUBCHEM_BONDANNOTATIONS>
10  14  8
10  16  8
12  20  8
12  21  8
13  14  8
13  15  8
13  19  8
15  18  8
16  18  8
17  22  8
17  23  8
2  4  8
2  8  8
20  24  8
21  25  8
22  27  8
23  28  8
24  26  8
25  26  8
27  29  8
28  29  8
3  4  8
3  9  8
5  15  8
5  6  8
6  19  8
8  9  8

$$$$
