49830352
  -OEChem-03202502532D

 56 60  0     0  0  0  0  0  0999 V2000
    4.9000   -2.7724    0.0000 S   0  0  0  0  0  0  0  0  0  0  0  0
   12.6350    5.7775    0.0000 F   0  0  0  0  0  0  0  0  0  0  0  0
   10.9887    6.3156    0.0000 F   0  0  0  0  0  0  0  0  0  0  0  0
    7.7890    2.1010    0.0000 O   0  0  0  0  0  0  0  0  0  0  0  0
   11.3459    4.6207    0.0000 O   0  0  0  0  0  0  0  0  0  0  0  0
    2.2218   -1.4677    0.0000 N   0  0  0  0  0  0  0  0  0  0  0  0
    2.5878   -5.5065    0.0000 N   0  0  0  0  0  0  0  0  0  0  0  0
    3.0878    0.0323    0.0000 N   0  0  0  0  0  0  0  0  0  0  0  0
    3.5878   -5.5065    0.0000 N   0  0  0  0  0  0  0  0  0  0  0  0
    6.1427    2.6391    0.0000 N   0  0  0  0  0  0  0  0  0  0  0  0
    7.4318    3.7959    0.0000 N   0  0  0  0  0  0  0  0  0  0  0  0
    3.9538   -1.4677    0.0000 C   0  0  0  0  0  0  0  0  0  0  0  0
    3.9538   -2.4677    0.0000 C   0  0  0  0  0  0  0  0  0  0  0  0
    4.9000   -1.1630    0.0000 C   0  0  0  0  0  0  0  0  0  0  0  0
    3.0878   -2.9677    0.0000 C   0  0  0  0  0  0  0  0  0  0  0  0
    5.2107   -0.2124    0.0000 C   0  0  0  0  0  0  0  0  0  0  0  0
    3.0878   -0.9677    0.0000 C   0  0  0  0  0  0  0  0  0  0  0  0
    3.0878   -3.9677    0.0000 C   0  0  0  0  0  0  0  0  0  0  0  0
    5.4836   -1.9677    0.0000 C   0  0  0  0  0  0  0  0  0  0  0  0
    2.2218   -2.4677    0.0000 C   0  0  0  0  0  0  0  0  0  0  0  0
    4.5428    0.5319    0.0000 C   0  0  0  0  0  0  0  0  0  0  0  0
    6.1892   -0.0062    0.0000 C   0  0  0  0  0  0  0  0  0  0  0  0
    2.2788   -4.5555    0.0000 C   0  0  0  0  0  0  0  0  0  0  0  0
    5.8320    1.6886    0.0000 C   0  0  0  0  0  0  0  0  0  0  0  0
    3.8968   -4.5555    0.0000 C   0  0  0  0  0  0  0  0  0  0  0  0
    4.8535    1.4824    0.0000 C   0  0  0  0  0  0  0  0  0  0  0  0
    6.4999    0.9443    0.0000 C   0  0  0  0  0  0  0  0  0  0  0  0
    2.0000   -6.3156    0.0000 C   0  0  0  0  0  0  0  0  0  0  0  0
    7.1212    2.8453    0.0000 C   0  0  0  0  0  0  0  0  0  0  0  0
    8.4104    4.0021    0.0000 C   0  0  0  0  0  0  0  0  0  0  0  0
    8.7210    4.9526    0.0000 C   0  0  0  0  0  0  0  0  0  0  0  0
    9.0782    3.2578    0.0000 C   0  0  0  0  0  0  0  0  0  0  0  0
   10.3674    4.4145    0.0000 C   0  0  0  0  0  0  0  0  0  0  0  0
    9.6995    5.1588    0.0000 C   0  0  0  0  0  0  0  0  0  0  0  0
   10.0567    3.4640    0.0000 C   0  0  0  0  0  0  0  0  0  0  0  0
   11.6565    5.5712    0.0000 C   0  0  0  0  0  0  0  0  0  0  0  0
    6.1036   -1.9677    0.0000 H   0  0  0  0  0  0  0  0  0  0  0  0
    1.6848   -2.7777    0.0000 H   0  0  0  0  0  0  0  0  0  0  0  0
    3.9362    0.4040    0.0000 H   0  0  0  0  0  0  0  0  0  0  0  0
    6.6033   -0.4677    0.0000 H   0  0  0  0  0  0  0  0  0  0  0  0
    1.6891   -4.3639    0.0000 H   0  0  0  0  0  0  0  0  0  0  0  0
    4.4865   -4.3639    0.0000 H   0  0  0  0  0  0  0  0  0  0  0  0
    4.4394    1.9438    0.0000 H   0  0  0  0  0  0  0  0  0  0  0  0
    7.1065    1.0722    0.0000 H   0  0  0  0  0  0  0  0  0  0  0  0
    2.5508    0.3423    0.0000 H   0  0  0  0  0  0  0  0  0  0  0  0
    3.6247    0.3423    0.0000 H   0  0  0  0  0  0  0  0  0  0  0  0
    5.7286    3.1006    0.0000 H   0  0  0  0  0  0  0  0  0  0  0  0
    1.4984   -5.9511    0.0000 H   0  0  0  0  0  0  0  0  0  0  0  0
    1.6356   -6.8171    0.0000 H   0  0  0  0  0  0  0  0  0  0  0  0
    2.5016   -6.6800    0.0000 H   0  0  0  0  0  0  0  0  0  0  0  0
    7.0178    4.2573    0.0000 H   0  0  0  0  0  0  0  0  0  0  0  0
    8.3070    5.4141    0.0000 H   0  0  0  0  0  0  0  0  0  0  0  0
    8.8856    2.6684    0.0000 H   0  0  0  0  0  0  0  0  0  0  0  0
    9.8921    5.7481    0.0000 H   0  0  0  0  0  0  0  0  0  0  0  0
   10.4708    3.0025    0.0000 H   0  0  0  0  0  0  0  0  0  0  0  0
   12.0706    5.1098    0.0000 H   0  0  0  0  0  0  0  0  0  0  0  0
  1 13  1  0  0  0  0
  1 19  1  0  0  0  0
  2 36  1  0  0  0  0
  3 36  1  0  0  0  0
  4 29  2  0  0  0  0
  5 33  1  0  0  0  0
  5 36  1  0  0  0  0
  6 17  2  0  0  0  0
  6 20  1  0  0  0  0
  7  9  1  0  0  0  0
  7 23  1  0  0  0  0
  7 28  1  0  0  0  0
  8 17  1  0  0  0  0
  8 45  1  0  0  0  0
  8 46  1  0  0  0  0
  9 25  2  0  0  0  0
 10 24  1  0  0  0  0
 10 29  1  0  0  0  0
 10 47  1  0  0  0  0
 11 29  1  0  0  0  0
 11 30  1  0  0  0  0
 11 51  1  0  0  0  0
 12 13  2  0  0  0  0
 12 14  1  0  0  0  0
 12 17  1  0  0  0  0
 13 15  1  0  0  0  0
 14 16  1  0  0  0  0
 14 19  2  0  0  0  0
 15 18  1  0  0  0  0
 15 20  2  0  0  0  0
 16 21  2  0  0  0  0
 16 22  1  0  0  0  0
 18 23  2  0  0  0  0
 18 25  1  0  0  0  0
 19 37  1  0  0  0  0
 20 38  1  0  0  0  0
 21 26  1  0  0  0  0
 21 39  1  0  0  0  0
 22 27  2  0  0  0  0
 22 40  1  0  0  0  0
 23 41  1  0  0  0  0
 24 26  2  0  0  0  0
 24 27  1  0  0  0  0
 25 42  1  0  0  0  0
 26 43  1  0  0  0  0
 27 44  1  0  0  0  0
 28 48  1  0  0  0  0
 28 49  1  0  0  0  0
 28 50  1  0  0  0  0
 30 31  2  0  0  0  0
 30 32  1  0  0  0  0
 31 34  1  0  0  0  0
 31 52  1  0  0  0  0
 32 35  2  0  0  0  0
 32 53  1  0  0  0  0
 33 34  2  0  0  0  0
 33 35  1  0  0  0  0
 34 54  1  0  0  0  0
 35 55  1  0  0  0  0
 36 56  1  0  0  0  0
M  END
> <PUBCHEM_COMPOUND_CID>
49830352

> <PUBCHEM_COMPOUND_CANONICALIZED>
1

> <PUBCHEM_CACTVS_COMPLEXITY>
737

> <PUBCHEM_CACTVS_HBOND_ACCEPTOR>
8

> <PUBCHEM_CACTVS_HBOND_DONOR>
3

> <PUBCHEM_CACTVS_ROTATABLE_BOND>
6

> <PUBCHEM_CACTVS_SUBSKEYS>
AAADceB7sYBAAAAAAAAAAAAAAAAAAWJAAAA8YIAAAAAAAFgB/gAAHwQYAAAADAzF2ha/99LIFAiuAjZndACTjKkxqjAY2DAubJiMJuLk8duEtCxs3BPo6CewwMAOiEAAAAAAAAAQgAAAAAAAAAAAAAAAAA==

> <PUBCHEM_IUPAC_OPENEYE_NAME>
1-[4-[4-amino-7-(1-methylpyrazol-4-yl)thieno[3,2-c]pyridin-3-yl]phenyl]-3-[4-(difluoromethoxy)phenyl]urea

> <PUBCHEM_IUPAC_CAS_NAME>
1-[4-[4-amino-7-(1-methyl-4-pyrazolyl)-3-thieno[3,2-c]pyridinyl]phenyl]-3-[4-(difluoromethoxy)phenyl]urea

> <PUBCHEM_IUPAC_NAME_MARKUP>
1-[4-[4-amino-7-(1-methylpyrazol-4-yl)thieno[3,2-c]pyridin-3-yl]phenyl]-3-[4-(difluoromethoxy)phenyl]urea

> <PUBCHEM_IUPAC_NAME>
1-[4-[4-amino-7-(1-methylpyrazol-4-yl)thieno[3,2-c]pyridin-3-yl]phenyl]-3-[4-(difluoromethoxy)phenyl]urea

> <PUBCHEM_IUPAC_SYSTEMATIC_NAME>
1-[4-[4-azanyl-7-(1-methylpyrazol-4-yl)thieno[3,2-c]pyridin-3-yl]phenyl]-3-[4-[bis(fluoranyl)methoxy]phenyl]urea

> <PUBCHEM_IUPAC_TRADITIONAL_NAME>
1-[4-[4-amino-7-(1-methylpyrazol-4-yl)thieno[3,2-c]pyridin-3-yl]phenyl]-3-[4-(difluoromethoxy)phenyl]urea

> <PUBCHEM_IUPAC_INCHI>
InChI=1S/C25H20F2N6O2S/c1-33-12-15(10-30-33)19-11-29-23(28)21-20(13-36-22(19)21)14-2-4-16(5-3-14)31-25(34)32-17-6-8-18(9-7-17)35-24(26)27/h2-13,24H,1H3,(H2,28,29)(H2,31,32,34)

> <PUBCHEM_IUPAC_INCHIKEY>
XOOAAYRIVATZNM-UHFFFAOYSA-N

> <PUBCHEM_XLOGP3_AA>
4.6

> <PUBCHEM_EXACT_MASS>
506.13365140

> <PUBCHEM_MOLECULAR_FORMULA>
C25H20F2N6O2S

> <PUBCHEM_MOLECULAR_WEIGHT>
506.5

> <PUBCHEM_SMILES>
CN1C=C(C=N1)C2=CN=C(C3=C2SC=C3C4=CC=C(C=C4)NC(=O)NC5=CC=C(C=C5)OC(F)F)N

> <PUBCHEM_OPENEYE_CAN_SMILES>
CN1C=C(C=N1)C2=CN=C(C3=C2SC=C3C4=CC=C(C=C4)NC(=O)NC5=CC=C(C=C5)OC(F)F)N

> <PUBCHEM_OPENEYE_ISO_SMILES>
CN1C=C(C=N1)C2=CN=C(C3=C2SC=C3C4=CC=C(C=C4)NC(=O)NC5=CC=C(C=C5)OC(F)F)N

> <PUBCHEM_CACTVS_TPSA>
135

> <PUBCHEM_MONOISOTOPIC_WEIGHT>
506.13365140

> <PUBCHEM_TOTAL_CHARGE>
0

> <PUBCHEM_HEAVY_ATOM_COUNT>
36

> <PUBCHEM_ATOM_DEF_STEREO_COUNT>
0

> <PUBCHEM_ATOM_UDEF_STEREO_COUNT>
0

> <PUBCHEM_BOND_DEF_STEREO_COUNT>
0

> <PUBCHEM_BOND_UDEF_STEREO_COUNT>
0

> <PUBCHEM_ISOTOPIC_ATOM_COUNT>
0

> <PUBCHEM_COMPONENT_COUNT>
1

> <PUBCHEM_CACTVS_TAUTO_COUNT>
-1

> <PUBCHEM_COORDINATE_TYPE>
1
5
255

> <PUBCHEM_BONDANNOTATIONS>
1  13  8
1  19  8
12  13  8
12  14  8
12  17  8
13  15  8
14  19  8
15  20  8
16  21  8
16  22  8
18  23  8
18  25  8
21  26  8
22  27  8
24  26  8
24  27  8
30  31  8
30  32  8
31  34  8
32  35  8
33  34  8
33  35  8
6  17  8
6  20  8
7  23  8
7  9  8
9  25  8

$$$$
