49830876
  -OEChem-03202502522D

 41 44  0     0  0  0  0  0  0999 V2000
    3.4030    0.3281    0.0000 S   0  0  0  0  0  0  0  0  0  0  0  0
    2.9030    1.1942    0.0000 O   0  0  0  0  0  0  0  0  0  0  0  0
    3.9030   -0.5379    0.0000 O   0  0  0  0  0  0  0  0  0  0  0  0
   10.4114    0.5234    0.0000 N   0  0  0  0  0  0  0  0  0  0  0  0
    8.5991    0.3281    0.0000 N   0  0  0  0  0  0  0  0  0  0  0  0
    6.8671    0.3281    0.0000 N   0  0  0  0  0  0  0  0  0  0  0  0
    7.7331    1.8282    0.0000 N   0  0  0  0  0  0  0  0  0  0  0  0
    2.5369   -0.1719    0.0000 N   0  0  0  0  0  0  0  0  0  0  0  0
    9.4651    0.8281    0.0000 C   0  0  0  0  0  0  0  0  0  0  0  0
    9.4651    1.8282    0.0000 C   0  0  0  0  0  0  0  0  0  0  0  0
   10.7220   -0.4271    0.0000 C   0  0  0  0  0  0  0  0  0  0  0  0
   10.9950    1.3282    0.0000 C   0  0  0  0  0  0  0  0  0  0  0  0
   10.4114    2.1329    0.0000 C   0  0  0  0  0  0  0  0  0  0  0  0
    7.7331    0.8281    0.0000 C   0  0  0  0  0  0  0  0  0  0  0  0
    6.0010    0.8281    0.0000 C   0  0  0  0  0  0  0  0  0  0  0  0
    8.5991    2.3282    0.0000 C   0  0  0  0  0  0  0  0  0  0  0  0
    4.2690    0.8281    0.0000 C   0  0  0  0  0  0  0  0  0  0  0  0
    5.1350    0.3281    0.0000 C   0  0  0  0  0  0  0  0  0  0  0  0
   11.7005   -0.6333    0.0000 C   0  0  0  0  0  0  0  0  0  0  0  0
   10.0542   -1.1714    0.0000 C   0  0  0  0  0  0  0  0  0  0  0  0
    6.0010    1.8282    0.0000 C   0  0  0  0  0  0  0  0  0  0  0  0
    4.2690    1.8282    0.0000 C   0  0  0  0  0  0  0  0  0  0  0  0
    5.1350    2.3282    0.0000 C   0  0  0  0  0  0  0  0  0  0  0  0
   12.0112   -1.5838    0.0000 C   0  0  0  0  0  0  0  0  0  0  0  0
   10.3648   -2.1219    0.0000 C   0  0  0  0  0  0  0  0  0  0  0  0
   11.3433   -2.3282    0.0000 C   0  0  0  0  0  0  0  0  0  0  0  0
   11.6150    1.3282    0.0000 H   0  0  0  0  0  0  0  0  0  0  0  0
   10.6040    2.7222    0.0000 H   0  0  0  0  0  0  0  0  0  0  0  0
    8.5991    2.9482    0.0000 H   0  0  0  0  0  0  0  0  0  0  0  0
    6.8671   -0.2919    0.0000 H   0  0  0  0  0  0  0  0  0  0  0  0
    5.1350   -0.2919    0.0000 H   0  0  0  0  0  0  0  0  0  0  0  0
   12.1146   -0.1719    0.0000 H   0  0  0  0  0  0  0  0  0  0  0  0
    9.4475   -1.0436    0.0000 H   0  0  0  0  0  0  0  0  0  0  0  0
    6.5380    2.1382    0.0000 H   0  0  0  0  0  0  0  0  0  0  0  0
    3.7320    2.1382    0.0000 H   0  0  0  0  0  0  0  0  0  0  0  0
    5.1350    2.9482    0.0000 H   0  0  0  0  0  0  0  0  0  0  0  0
   12.6179   -1.7117    0.0000 H   0  0  0  0  0  0  0  0  0  0  0  0
    9.9508   -2.5834    0.0000 H   0  0  0  0  0  0  0  0  0  0  0  0
   11.5360   -2.9175    0.0000 H   0  0  0  0  0  0  0  0  0  0  0  0
    2.0000    0.1381    0.0000 H   0  0  0  0  0  0  0  0  0  0  0  0
    2.5369   -0.7919    0.0000 H   0  0  0  0  0  0  0  0  0  0  0  0
  1  2  2  0  0  0  0
  1  3  2  0  0  0  0
  1  8  1  0  0  0  0
  1 17  1  0  0  0  0
  4  9  1  0  0  0  0
  4 11  1  0  0  0  0
  4 12  1  0  0  0  0
  5  9  2  0  0  0  0
  5 14  1  0  0  0  0
  6 14  1  0  0  0  0
  6 15  1  0  0  0  0
  6 30  1  0  0  0  0
  7 14  2  0  0  0  0
  7 16  1  0  0  0  0
  8 40  1  0  0  0  0
  8 41  1  0  0  0  0
  9 10  1  0  0  0  0
 10 13  1  0  0  0  0
 10 16  2  0  0  0  0
 11 19  2  0  0  0  0
 11 20  1  0  0  0  0
 12 13  2  0  0  0  0
 12 27  1  0  0  0  0
 13 28  1  0  0  0  0
 15 18  2  0  0  0  0
 15 21  1  0  0  0  0
 16 29  1  0  0  0  0
 17 18  1  0  0  0  0
 17 22  2  0  0  0  0
 18 31  1  0  0  0  0
 19 24  1  0  0  0  0
 19 32  1  0  0  0  0
 20 25  2  0  0  0  0
 20 33  1  0  0  0  0
 21 23  2  0  0  0  0
 21 34  1  0  0  0  0
 22 23  1  0  0  0  0
 22 35  1  0  0  0  0
 23 36  1  0  0  0  0
 24 26  2  0  0  0  0
 24 37  1  0  0  0  0
 25 26  1  0  0  0  0
 25 38  1  0  0  0  0
 26 39  1  0  0  0  0
M  END
> <PUBCHEM_COMPOUND_CID>
49830876

> <PUBCHEM_COMPOUND_CANONICALIZED>
1

> <PUBCHEM_CACTVS_COMPLEXITY>
575

> <PUBCHEM_CACTVS_HBOND_ACCEPTOR>
6

> <PUBCHEM_CACTVS_HBOND_DONOR>
2

> <PUBCHEM_CACTVS_ROTATABLE_BOND>
4

> <PUBCHEM_CACTVS_SUBSKEYS>
AAADccB7sABAAAAAAAAAAAAAAAAAAWAAAAA8YIAAAAAAAFgB/AAAHAQQQAAADAjBWwQ98d/MEAKgAjZnZHDCgDkxAqAJ2Dg4ZJiIKOLA2dGEJAxokALIyCcQAAAIAAAAACAAAAAAAAAAQAAAAAAAAAAAAA==

> <PUBCHEM_IUPAC_OPENEYE_NAME>
3-[(7-phenylpyrrolo[2,3-d]pyrimidin-2-yl)amino]benzenesulfonamide

> <PUBCHEM_IUPAC_CAS_NAME>
3-[(7-phenyl-2-pyrrolo[2,3-d]pyrimidinyl)amino]benzenesulfonamide

> <PUBCHEM_IUPAC_NAME_MARKUP>
3-[(7-phenylpyrrolo[2,3-d]pyrimidin-2-yl)amino]benzenesulfonamide

> <PUBCHEM_IUPAC_NAME>
3-[(7-phenylpyrrolo[2,3-d]pyrimidin-2-yl)amino]benzenesulfonamide

> <PUBCHEM_IUPAC_SYSTEMATIC_NAME>
3-[(7-phenylpyrrolo[2,3-d]pyrimidin-2-yl)amino]benzenesulfonamide

> <PUBCHEM_IUPAC_TRADITIONAL_NAME>
3-[(7-phenylpyrrolo[2,3-d]pyrimidin-2-yl)amino]benzenesulfonamide

> <PUBCHEM_IUPAC_INCHI>
InChI=1S/C18H15N5O2S/c19-26(24,25)16-8-4-5-14(11-16)21-18-20-12-13-9-10-23(17(13)22-18)15-6-2-1-3-7-15/h1-12H,(H2,19,24,25)(H,20,21,22)

> <PUBCHEM_IUPAC_INCHIKEY>
YEHCNYAQEBQCCS-UHFFFAOYSA-N

> <PUBCHEM_XLOGP3_AA>
2.7

> <PUBCHEM_EXACT_MASS>
365.09464591

> <PUBCHEM_MOLECULAR_FORMULA>
C18H15N5O2S

> <PUBCHEM_MOLECULAR_WEIGHT>
365.4

> <PUBCHEM_SMILES>
C1=CC=C(C=C1)N2C=CC3=CN=C(N=C32)NC4=CC(=CC=C4)S(=O)(=O)N

> <PUBCHEM_OPENEYE_CAN_SMILES>
C1=CC=C(C=C1)N2C=CC3=CN=C(N=C32)NC4=CC(=CC=C4)S(=O)(=O)N

> <PUBCHEM_OPENEYE_ISO_SMILES>
C1=CC=C(C=C1)N2C=CC3=CN=C(N=C32)NC4=CC(=CC=C4)S(=O)(=O)N

> <PUBCHEM_CACTVS_TPSA>
111

> <PUBCHEM_MONOISOTOPIC_WEIGHT>
365.09464591

> <PUBCHEM_TOTAL_CHARGE>
0

> <PUBCHEM_HEAVY_ATOM_COUNT>
26

> <PUBCHEM_ATOM_DEF_STEREO_COUNT>
0

> <PUBCHEM_ATOM_UDEF_STEREO_COUNT>
0

> <PUBCHEM_BOND_DEF_STEREO_COUNT>
0

> <PUBCHEM_BOND_UDEF_STEREO_COUNT>
0

> <PUBCHEM_ISOTOPIC_ATOM_COUNT>
0

> <PUBCHEM_COMPONENT_COUNT>
1

> <PUBCHEM_CACTVS_TAUTO_COUNT>
-1

> <PUBCHEM_COORDINATE_TYPE>
1
5
255

> <PUBCHEM_BONDANNOTATIONS>
10  13  8
10  16  8
11  19  8
11  20  8
12  13  8
15  18  8
15  21  8
17  18  8
17  22  8
19  24  8
20  25  8
21  23  8
22  23  8
24  26  8
25  26  8
4  12  8
4  9  8
5  14  8
5  9  8
7  14  8
7  16  8
9  10  8

$$$$
