24905225
  -OEChem-03192523432D

 37 40  0     0  0  0  0  0  0999 V2000
    3.7899    1.0826    0.0000 N   0  0  0  0  0  0  0  0  0  0  0  0
    4.7617    0.8734    0.0000 N   0  0  0  0  0  0  0  0  0  0  0  0
    2.3107    0.0177    0.0000 N   0  0  0  0  0  0  0  0  0  0  0  0
    2.6678   -1.6772    0.0000 N   0  0  0  0  0  0  0  0  0  0  0  0
    4.3142   -2.2152    0.0000 N   0  0  0  0  0  0  0  0  0  0  0  0
    6.5968   -2.1153    0.0000 N   0  0  0  0  0  0  0  0  0  0  0  0
    8.3568   -0.0806    0.0000 N   0  0  0  0  0  0  0  0  0  0  0  0
    8.3568   -2.1500    0.0000 N   0  0  0  0  0  0  0  0  0  0  0  0
    3.3864    1.9976    0.0000 C   0  0  0  0  0  0  0  0  0  0  0  0
    3.2892    0.2239    0.0000 C   0  0  0  0  0  0  0  0  0  0  0  0
    3.9570   -0.5204    0.0000 C   0  0  0  0  0  0  0  0  0  0  0  0
    4.8648   -0.1153    0.0000 C   0  0  0  0  0  0  0  0  0  0  0  0
    3.9769    2.8046    0.0000 C   0  0  0  0  0  0  0  0  0  0  0  0
    2.3922    2.1056    0.0000 C   0  0  0  0  0  0  0  0  0  0  0  0
    5.7308   -0.6153    0.0000 C   0  0  0  0  0  0  0  0  0  0  0  0
    3.6464   -1.4709    0.0000 C   0  0  0  0  0  0  0  0  0  0  0  0
    6.5968   -0.1153    0.0000 C   0  0  0  0  0  0  0  0  0  0  0  0
    5.7308   -1.6153    0.0000 C   0  0  0  0  0  0  0  0  0  0  0  0
    7.4629   -0.6153    0.0000 C   0  0  0  0  0  0  0  0  0  0  0  0
    2.0000   -0.9328    0.0000 C   0  0  0  0  0  0  0  0  0  0  0  0
    7.4629   -1.6153    0.0000 C   0  0  0  0  0  0  0  0  0  0  0  0
    9.2629   -0.5945    0.0000 C   0  0  0  0  0  0  0  0  0  0  0  0
    9.2629   -1.6361    0.0000 C   0  0  0  0  0  0  0  0  0  0  0  0
    3.0202    1.4972    0.0000 H   0  0  0  0  0  0  0  0  0  0  0  0
    4.4773    2.4384    0.0000 H   0  0  0  0  0  0  0  0  0  0  0  0
    4.3431    3.3049    0.0000 H   0  0  0  0  0  0  0  0  0  0  0  0
    3.4766    3.1707    0.0000 H   0  0  0  0  0  0  0  0  0  0  0  0
    2.4591    2.7219    0.0000 H   0  0  0  0  0  0  0  0  0  0  0  0
    1.7758    2.1725    0.0000 H   0  0  0  0  0  0  0  0  0  0  0  0
    2.3253    1.4892    0.0000 H   0  0  0  0  0  0  0  0  0  0  0  0
    6.5968    0.5047    0.0000 H   0  0  0  0  0  0  0  0  0  0  0  0
    5.1939   -1.9253    0.0000 H   0  0  0  0  0  0  0  0  0  0  0  0
    1.3933   -1.0607    0.0000 H   0  0  0  0  0  0  0  0  0  0  0  0
    4.1216   -2.8046    0.0000 H   0  0  0  0  0  0  0  0  0  0  0  0
    4.9209   -2.0874    0.0000 H   0  0  0  0  0  0  0  0  0  0  0  0
    9.7986   -0.2824    0.0000 H   0  0  0  0  0  0  0  0  0  0  0  0
    9.7986   -1.9482    0.0000 H   0  0  0  0  0  0  0  0  0  0  0  0
  1  2  1  0  0  0  0
  1  9  1  0  0  0  0
  1 10  1  0  0  0  0
  2 12  2  0  0  0  0
  3 10  2  0  0  0  0
  3 20  1  0  0  0  0
  4 16  1  0  0  0  0
  4 20  2  0  0  0  0
  5 16  1  0  0  0  0
  5 34  1  0  0  0  0
  5 35  1  0  0  0  0
  6 18  2  0  0  0  0
  6 21  1  0  0  0  0
  7 19  2  0  0  0  0
  7 22  1  0  0  0  0
  8 21  2  0  0  0  0
  8 23  1  0  0  0  0
  9 13  1  0  0  0  0
  9 14  1  0  0  0  0
  9 24  1  0  0  0  0
 10 11  1  0  0  0  0
 11 12  1  0  0  0  0
 11 16  2  0  0  0  0
 12 15  1  0  0  0  0
 13 25  1  0  0  0  0
 13 26  1  0  0  0  0
 13 27  1  0  0  0  0
 14 28  1  0  0  0  0
 14 29  1  0  0  0  0
 14 30  1  0  0  0  0
 15 17  2  0  0  0  0
 15 18  1  0  0  0  0
 17 19  1  0  0  0  0
 17 31  1  0  0  0  0
 18 32  1  0  0  0  0
 19 21  1  0  0  0  0
 20 33  1  0  0  0  0
 22 23  2  0  0  0  0
 22 36  1  0  0  0  0
 23 37  1  0  0  0  0
M  END
> <PUBCHEM_COMPOUND_CID>
24905225

> <PUBCHEM_COMPOUND_CANONICALIZED>
1

> <PUBCHEM_CACTVS_COMPLEXITY>
418

> <PUBCHEM_CACTVS_HBOND_ACCEPTOR>
7

> <PUBCHEM_CACTVS_HBOND_DONOR>
1

> <PUBCHEM_CACTVS_ROTATABLE_BOND>
2

> <PUBCHEM_CACTVS_SUBSKEYS>
AAADccBzwAAAAAAAAAAAAAAAAAAAAWAAAAAsWLAAAAAAAFix/gAAHAAYAAAADCjBHwQ/8P5IEACiAzZnZACShC8xkqAd2CA4dJiIaOLA2dGUpAhoiALIyCcQgEAOAAAAAAAAAAAAAAAAAAAAAAAAAAAAAA==

> <PUBCHEM_IUPAC_OPENEYE_NAME>
1-isopropyl-3-pyrido[2,3-b]pyrazin-7-yl-pyrazolo[3,4-d]pyrimidin-4-amine

> <PUBCHEM_IUPAC_CAS_NAME>
1-propan-2-yl-3-(7-pyrido[2,3-b]pyrazinyl)-4-pyrazolo[3,4-d]pyrimidinamine

> <PUBCHEM_IUPAC_NAME_MARKUP>
1-propan-2-yl-3-pyrido[2,3-b]pyrazin-7-ylpyrazolo[3,4-d]pyrimidin-4-amine

> <PUBCHEM_IUPAC_NAME>
1-propan-2-yl-3-pyrido[2,3-b]pyrazin-7-ylpyrazolo[3,4-d]pyrimidin-4-amine

> <PUBCHEM_IUPAC_SYSTEMATIC_NAME>
1-propan-2-yl-3-pyrido[2,3-b]pyrazin-7-yl-pyrazolo[3,4-d]pyrimidin-4-amine

> <PUBCHEM_IUPAC_TRADITIONAL_NAME>
(1-isopropyl-3-pyrido[2,3-b]pyrazin-7-yl-pyrazolo[3,4-d]pyrimidin-4-yl)amine

> <PUBCHEM_IUPAC_INCHI>
InChI=1S/C15H14N8/c1-8(2)23-15-11(13(16)20-7-21-15)12(22-23)9-5-10-14(19-6-9)18-4-3-17-10/h3-8H,1-2H3,(H2,16,20,21)

> <PUBCHEM_IUPAC_INCHIKEY>
OLYMWYHESNHWOK-UHFFFAOYSA-N

> <PUBCHEM_XLOGP3_AA>
0.8

> <PUBCHEM_EXACT_MASS>
306.13414248

> <PUBCHEM_MOLECULAR_FORMULA>
C15H14N8

> <PUBCHEM_MOLECULAR_WEIGHT>
306.33

> <PUBCHEM_SMILES>
CC(C)N1C2=NC=NC(=C2C(=N1)C3=CC4=NC=CN=C4N=C3)N

> <PUBCHEM_OPENEYE_CAN_SMILES>
CC(C)N1C2=NC=NC(=C2C(=N1)C3=CC4=NC=CN=C4N=C3)N

> <PUBCHEM_OPENEYE_ISO_SMILES>
CC(C)N1C2=NC=NC(=C2C(=N1)C3=CC4=NC=CN=C4N=C3)N

> <PUBCHEM_CACTVS_TPSA>
108

> <PUBCHEM_MONOISOTOPIC_WEIGHT>
306.13414248

> <PUBCHEM_TOTAL_CHARGE>
0

> <PUBCHEM_HEAVY_ATOM_COUNT>
23

> <PUBCHEM_ATOM_DEF_STEREO_COUNT>
0

> <PUBCHEM_ATOM_UDEF_STEREO_COUNT>
0

> <PUBCHEM_BOND_DEF_STEREO_COUNT>
0

> <PUBCHEM_BOND_UDEF_STEREO_COUNT>
0

> <PUBCHEM_ISOTOPIC_ATOM_COUNT>
0

> <PUBCHEM_COMPONENT_COUNT>
1

> <PUBCHEM_CACTVS_TAUTO_COUNT>
-1

> <PUBCHEM_COORDINATE_TYPE>
1
5
255

> <PUBCHEM_BONDANNOTATIONS>
1  10  8
1  2  8
10  11  8
11  12  8
11  16  8
15  17  8
15  18  8
17  19  8
19  21  8
2  12  8
22  23  8
3  10  8
3  20  8
4  16  8
4  20  8
6  18  8
6  21  8
7  19  8
7  22  8
8  21  8
8  23  8

$$$$
