14802487
  -OEChem-03202505442D

 44 45  0     0  0  0  0  0  0999 V2000
    6.3301   -2.2327    0.0000 S   0  0  0  0  0  0  0  0  0  0  0  0
    5.3301   -2.2327    0.0000 O   0  0  0  0  0  0  0  0  0  0  0  0
    7.3301   -2.2327    0.0000 O   0  0  0  0  0  0  0  0  0  0  0  0
    5.4641    2.2673    0.0000 O   0  0  0  0  0  0  0  0  0  0  0  0
    2.8660    4.7673    0.0000 O   0  0  0  0  0  0  0  0  0  0  0  0
    2.0000    3.2673    0.0000 O   0  0  0  0  0  0  0  0  0  0  0  0
    6.3301   -1.2327    0.0000 N   0  0  0  0  0  0  0  0  0  0  0  0
    4.5981    0.7673    0.0000 N   0  0  0  0  0  0  0  0  0  0  0  0
    8.9962   -4.7535    0.0000 N   0  0  0  0  0  0  0  0  0  0  0  0
    6.3301   -3.2327    0.0000 C   0  0  0  0  0  0  0  0  0  0  0  0
    5.4641   -0.7327    0.0000 C   0  0  0  0  0  0  0  0  0  0  0  0
    7.1962   -3.7327    0.0000 C   0  0  0  0  0  0  0  0  0  0  0  0
    5.4641    0.2673    0.0000 C   0  0  0  0  0  0  0  0  0  0  0  0
    7.1962   -4.7327    0.0000 C   0  0  0  0  0  0  0  0  0  0  0  0
    5.4641   -3.7327    0.0000 C   0  0  0  0  0  0  0  0  0  0  0  0
    6.3301   -5.2327    0.0000 C   0  0  0  0  0  0  0  0  0  0  0  0
    8.0901   -3.1980    0.0000 C   0  0  0  0  0  0  0  0  0  0  0  0
    5.4641   -4.7327    0.0000 C   0  0  0  0  0  0  0  0  0  0  0  0
    3.7320    2.2673    0.0000 C   0  0  0  0  0  0  0  0  0  0  0  0
    4.5981    1.7673    0.0000 C   0  0  0  0  0  0  0  0  0  0  0  0
    8.0901   -5.2673    0.0000 C   0  0  0  0  0  0  0  0  0  0  0  0
    3.7320    3.2673    0.0000 C   0  0  0  0  0  0  0  0  0  0  0  0
    8.9962   -3.7118    0.0000 C   0  0  0  0  0  0  0  0  0  0  0  0
    2.8660    3.7673    0.0000 C   0  0  0  0  0  0  0  0  0  0  0  0
    2.0000    5.2673    0.0000 C   0  0  0  0  0  0  0  0  0  0  0  0
    4.8535   -0.6250    0.0000 H   0  0  0  0  0  0  0  0  0  0  0  0
    5.2520   -1.3153    0.0000 H   0  0  0  0  0  0  0  0  0  0  0  0
    6.8671   -0.9227    0.0000 H   0  0  0  0  0  0  0  0  0  0  0  0
    6.0747    0.1597    0.0000 H   0  0  0  0  0  0  0  0  0  0  0  0
    5.6762    0.8499    0.0000 H   0  0  0  0  0  0  0  0  0  0  0  0
    4.9272   -3.4227    0.0000 H   0  0  0  0  0  0  0  0  0  0  0  0
    4.0611    0.4573    0.0000 H   0  0  0  0  0  0  0  0  0  0  0  0
    6.3301   -5.8527    0.0000 H   0  0  0  0  0  0  0  0  0  0  0  0
    8.0829   -2.5780    0.0000 H   0  0  0  0  0  0  0  0  0  0  0  0
    4.9272   -5.0427    0.0000 H   0  0  0  0  0  0  0  0  0  0  0  0
    3.1215    2.3750    0.0000 H   0  0  0  0  0  0  0  0  0  0  0  0
    3.5200    1.6847    0.0000 H   0  0  0  0  0  0  0  0  0  0  0  0
    8.0829   -5.8873    0.0000 H   0  0  0  0  0  0  0  0  0  0  0  0
    4.3426    3.1597    0.0000 H   0  0  0  0  0  0  0  0  0  0  0  0
    3.9441    3.8499    0.0000 H   0  0  0  0  0  0  0  0  0  0  0  0
    9.5319   -3.3998    0.0000 H   0  0  0  0  0  0  0  0  0  0  0  0
    2.3100    5.8043    0.0000 H   0  0  0  0  0  0  0  0  0  0  0  0
    1.4631    5.5773    0.0000 H   0  0  0  0  0  0  0  0  0  0  0  0
    1.6900    4.7304    0.0000 H   0  0  0  0  0  0  0  0  0  0  0  0
  1  2  2  0  0  0  0
  1  3  2  0  0  0  0
  1  7  1  0  0  0  0
  1 10  1  0  0  0  0
  4 20  2  0  0  0  0
  5 24  1  0  0  0  0
  5 25  1  0  0  0  0
  6 24  2  0  0  0  0
  7 11  1  0  0  0  0
  7 28  1  0  0  0  0
  8 13  1  0  0  0  0
  8 20  1  0  0  0  0
  8 32  1  0  0  0  0
  9 21  2  0  0  0  0
  9 23  1  0  0  0  0
 10 12  1  0  0  0  0
 10 15  2  0  0  0  0
 11 13  1  0  0  0  0
 11 26  1  0  0  0  0
 11 27  1  0  0  0  0
 12 14  2  0  0  0  0
 12 17  1  0  0  0  0
 13 29  1  0  0  0  0
 13 30  1  0  0  0  0
 14 16  1  0  0  0  0
 14 21  1  0  0  0  0
 15 18  1  0  0  0  0
 15 31  1  0  0  0  0
 16 18  2  0  0  0  0
 16 33  1  0  0  0  0
 17 23  2  0  0  0  0
 17 34  1  0  0  0  0
 18 35  1  0  0  0  0
 19 20  1  0  0  0  0
 19 22  1  0  0  0  0
 19 36  1  0  0  0  0
 19 37  1  0  0  0  0
 21 38  1  0  0  0  0
 22 24  1  0  0  0  0
 22 39  1  0  0  0  0
 22 40  1  0  0  0  0
 23 41  1  0  0  0  0
 25 42  1  0  0  0  0
 25 43  1  0  0  0  0
 25 44  1  0  0  0  0
M  END
> <PUBCHEM_COMPOUND_CID>
14802487

> <PUBCHEM_COMPOUND_CANONICALIZED>
1

> <PUBCHEM_CACTVS_COMPLEXITY>
561

> <PUBCHEM_CACTVS_HBOND_ACCEPTOR>
7

> <PUBCHEM_CACTVS_HBOND_DONOR>
2

> <PUBCHEM_CACTVS_ROTATABLE_BOND>
9

> <PUBCHEM_CACTVS_SUBSKEYS>
AAADceB7OABAAAAAAAAAAAAAAAAAAAAAAAA8QAAAAAAAAACx8AAAHgQQQAAADADB2gY+idLIFAKoAjH3XHDCgDAxAiAI2Lk4ZJgIYPLAkZGUIAhklgDIyAc3gIAOgAAAgAAUAAAAAAEAACgAAAAAAAAAAA==

> <PUBCHEM_IUPAC_OPENEYE_NAME>
methyl 4-[2-(5-isoquinolylsulfonylamino)ethylamino]-4-oxo-butanoate

> <PUBCHEM_IUPAC_CAS_NAME>
4-[2-(5-isoquinolinylsulfonylamino)ethylamino]-4-oxobutanoic acid methyl ester

> <PUBCHEM_IUPAC_NAME_MARKUP>
methyl 4-[2-(isoquinolin-5-ylsulfonylamino)ethylamino]-4-oxobutanoate

> <PUBCHEM_IUPAC_NAME>
methyl 4-[2-(isoquinolin-5-ylsulfonylamino)ethylamino]-4-oxobutanoate

> <PUBCHEM_IUPAC_SYSTEMATIC_NAME>
methyl 4-[2-(isoquinolin-5-ylsulfonylamino)ethylamino]-4-oxidanylidene-butanoate

> <PUBCHEM_IUPAC_TRADITIONAL_NAME>
4-[2-(5-isoquinolylsulfonylamino)ethylamino]-4-keto-butyric acid methyl ester

> <PUBCHEM_IUPAC_INCHI>
InChI=1S/C16H19N3O5S/c1-24-16(21)6-5-15(20)18-9-10-19-25(22,23)14-4-2-3-12-11-17-8-7-13(12)14/h2-4,7-8,11,19H,5-6,9-10H2,1H3,(H,18,20)

> <PUBCHEM_IUPAC_INCHIKEY>
NMBAAOGBDXORST-UHFFFAOYSA-N

> <PUBCHEM_XLOGP3_AA>
0.1

> <PUBCHEM_EXACT_MASS>
365.10454189

> <PUBCHEM_MOLECULAR_FORMULA>
C16H19N3O5S

> <PUBCHEM_MOLECULAR_WEIGHT>
365.4

> <PUBCHEM_SMILES>
COC(=O)CCC(=O)NCCNS(=O)(=O)C1=CC=CC2=C1C=CN=C2

> <PUBCHEM_OPENEYE_CAN_SMILES>
COC(=O)CCC(=O)NCCNS(=O)(=O)C1=CC=CC2=C1C=CN=C2

> <PUBCHEM_OPENEYE_ISO_SMILES>
COC(=O)CCC(=O)NCCNS(=O)(=O)C1=CC=CC2=C1C=CN=C2

> <PUBCHEM_CACTVS_TPSA>
123

> <PUBCHEM_MONOISOTOPIC_WEIGHT>
365.10454189

> <PUBCHEM_TOTAL_CHARGE>
0

> <PUBCHEM_HEAVY_ATOM_COUNT>
25

> <PUBCHEM_ATOM_DEF_STEREO_COUNT>
0

> <PUBCHEM_ATOM_UDEF_STEREO_COUNT>
0

> <PUBCHEM_BOND_DEF_STEREO_COUNT>
0

> <PUBCHEM_BOND_UDEF_STEREO_COUNT>
0

> <PUBCHEM_ISOTOPIC_ATOM_COUNT>
0

> <PUBCHEM_COMPONENT_COUNT>
1

> <PUBCHEM_CACTVS_TAUTO_COUNT>
-1

> <PUBCHEM_COORDINATE_TYPE>
1
5
255

> <PUBCHEM_BONDANNOTATIONS>
10  12  8
10  15  8
12  14  8
12  17  8
14  16  8
14  21  8
15  18  8
16  18  8
17  23  8
9  21  8
9  23  8

$$$$
