489124
  -OEChem-03202505212D

 45 50  0     0  0  0  0  0  0999 V2000
    8.3508   -1.7552    0.0000 O   0  0  0  0  0  0  0  0  0  0  0  0
    8.3508    1.7552    0.0000 O   0  0  0  0  0  0  0  0  0  0  0  0
    4.6249   -1.1671    0.0000 N   0  0  0  0  0  0  0  0  0  0  0  0
    4.6249    1.1671    0.0000 N   0  0  0  0  0  0  0  0  0  0  0  0
    8.6238    0.0000    0.0000 N   0  0  0  0  0  0  0  0  0  0  0  0
    5.3619   -0.5000    0.0000 C   0  0  0  0  0  0  0  0  0  0  0  0
    6.2279   -1.0000    0.0000 C   0  0  0  0  0  0  0  0  0  0  0  0
    5.3619    0.5000    0.0000 C   0  0  0  0  0  0  0  0  0  0  0  0
    6.2279    1.0000    0.0000 C   0  0  0  0  0  0  0  0  0  0  0  0
    7.0939   -0.5000    0.0000 C   0  0  0  0  0  0  0  0  0  0  0  0
    6.0187   -1.9718    0.0000 C   0  0  0  0  0  0  0  0  0  0  0  0
    7.0939    0.5000    0.0000 C   0  0  0  0  0  0  0  0  0  0  0  0
    5.0300   -2.0749    0.0000 C   0  0  0  0  0  0  0  0  0  0  0  0
    6.0187    1.9718    0.0000 C   0  0  0  0  0  0  0  0  0  0  0  0
    3.6464   -0.9609    0.0000 C   0  0  0  0  0  0  0  0  0  0  0  0
    5.0300    2.0749    0.0000 C   0  0  0  0  0  0  0  0  0  0  0  0
    8.0401   -0.8047    0.0000 C   0  0  0  0  0  0  0  0  0  0  0  0
    8.0401    0.8047    0.0000 C   0  0  0  0  0  0  0  0  0  0  0  0
    6.6394   -2.8006    0.0000 C   0  0  0  0  0  0  0  0  0  0  0  0
    2.9785   -1.7052    0.0000 C   0  0  0  0  0  0  0  0  0  0  0  0
    4.5935   -3.0138    0.0000 C   0  0  0  0  0  0  0  0  0  0  0  0
    6.6394    2.8006    0.0000 C   0  0  0  0  0  0  0  0  0  0  0  0
    4.5935    3.0138    0.0000 C   0  0  0  0  0  0  0  0  0  0  0  0
    6.2248   -3.7494    0.0000 C   0  0  0  0  0  0  0  0  0  0  0  0
    5.1949   -3.8567    0.0000 C   0  0  0  0  0  0  0  0  0  0  0  0
    2.0000   -1.4990    0.0000 C   0  0  0  0  0  0  0  0  0  0  0  0
    6.2248    3.7494    0.0000 C   0  0  0  0  0  0  0  0  0  0  0  0
    5.1949    3.8567    0.0000 C   0  0  0  0  0  0  0  0  0  0  0  0
    3.8776   -0.3856    0.0000 H   0  0  0  0  0  0  0  0  0  0  0  0
    3.1200   -0.6332    0.0000 H   0  0  0  0  0  0  0  0  0  0  0  0
    4.0182    1.0392    0.0000 H   0  0  0  0  0  0  0  0  0  0  0  0
    7.2553   -2.7292    0.0000 H   0  0  0  0  0  0  0  0  0  0  0  0
    2.7472   -2.2804    0.0000 H   0  0  0  0  0  0  0  0  0  0  0  0
    3.5049   -2.0328    0.0000 H   0  0  0  0  0  0  0  0  0  0  0  0
    3.9761   -3.0710    0.0000 H   0  0  0  0  0  0  0  0  0  0  0  0
    9.2438    0.0000    0.0000 H   0  0  0  0  0  0  0  0  0  0  0  0
    7.2553    2.7292    0.0000 H   0  0  0  0  0  0  0  0  0  0  0  0
    3.9761    3.0710    0.0000 H   0  0  0  0  0  0  0  0  0  0  0  0
    6.5907   -4.2499    0.0000 H   0  0  0  0  0  0  0  0  0  0  0  0
    4.9400   -4.4219    0.0000 H   0  0  0  0  0  0  0  0  0  0  0  0
    2.1279   -0.8923    0.0000 H   0  0  0  0  0  0  0  0  0  0  0  0
    1.3933   -1.3711    0.0000 H   0  0  0  0  0  0  0  0  0  0  0  0
    1.8721   -2.1056    0.0000 H   0  0  0  0  0  0  0  0  0  0  0  0
    6.5907    4.2499    0.0000 H   0  0  0  0  0  0  0  0  0  0  0  0
    4.9400    4.4219    0.0000 H   0  0  0  0  0  0  0  0  0  0  0  0
  1 17  2  0  0  0  0
  2 18  2  0  0  0  0
  3  6  1  0  0  0  0
  3 13  1  0  0  0  0
  3 15  1  0  0  0  0
  4  8  1  0  0  0  0
  4 16  1  0  0  0  0
  4 31  1  0  0  0  0
  5 17  1  0  0  0  0
  5 18  1  0  0  0  0
  5 36  1  0  0  0  0
  6  7  1  0  0  0  0
  6  8  2  0  0  0  0
  7 10  2  0  0  0  0
  7 11  1  0  0  0  0
  8  9  1  0  0  0  0
  9 12  2  0  0  0  0
  9 14  1  0  0  0  0
 10 12  1  0  0  0  0
 10 17  1  0  0  0  0
 11 13  1  0  0  0  0
 11 19  2  0  0  0  0
 12 18  1  0  0  0  0
 13 21  2  0  0  0  0
 14 16  1  0  0  0  0
 14 22  2  0  0  0  0
 15 20  1  0  0  0  0
 15 29  1  0  0  0  0
 15 30  1  0  0  0  0
 16 23  2  0  0  0  0
 19 24  1  0  0  0  0
 19 32  1  0  0  0  0
 20 26  1  0  0  0  0
 20 33  1  0  0  0  0
 20 34  1  0  0  0  0
 21 25  1  0  0  0  0
 21 35  1  0  0  0  0
 22 27  1  0  0  0  0
 22 37  1  0  0  0  0
 23 28  1  0  0  0  0
 23 38  1  0  0  0  0
 24 25  2  0  0  0  0
 24 39  1  0  0  0  0
 25 40  1  0  0  0  0
 26 41  1  0  0  0  0
 26 42  1  0  0  0  0
 26 43  1  0  0  0  0
 27 28  2  0  0  0  0
 27 44  1  0  0  0  0
 28 45  1  0  0  0  0
M  END
> <PUBCHEM_COMPOUND_CID>
489124

> <PUBCHEM_COMPOUND_CANONICALIZED>
1

> <PUBCHEM_CACTVS_COMPLEXITY>
681

> <PUBCHEM_CACTVS_HBOND_ACCEPTOR>
2

> <PUBCHEM_CACTVS_HBOND_DONOR>
2

> <PUBCHEM_CACTVS_ROTATABLE_BOND>
2

> <PUBCHEM_CACTVS_SUBSKEYS>
AAADceB7MAAAAAAAAAAAAAAAAAAAAWLFgAAwYMAAAAAAAFgB/gAAHgAQAAAADAjBngQywPPNkACoAyVyVACCgCQlEiAI2SE4dNgIYPLAlZGUIQhglCDIyQcdicCeyAACQAASACCQAASAACQAQAAAAAAAAA==

> <PUBCHEM_IUPAC_OPENEYE_NAME>
3-propyl-3,13,23-triazahexacyclo[14.7.0.02,10.04,9.011,15.017,22]tricosa-1,4,6,8,10,15,17,19,21-nonaene-12,14-dione

> <PUBCHEM_IUPAC_CAS_NAME>
3-propyl-3,13,23-triazahexacyclo[14.7.0.02,10.04,9.011,15.017,22]tricosa-1,4,6,8,10,15,17,19,21-nonaene-12,14-dione

> <PUBCHEM_IUPAC_NAME_MARKUP>
3-propyl-3,13,23-triazahexacyclo[14.7.0.0<SUP>2,10</SUP>.0<SUP>4,9</SUP>.0<SUP>11,15</SUP>.0<SUP>17,22</SUP>]tricosa-1,4,6,8,10,15,17,19,21-nonaene-12,14-dione

> <PUBCHEM_IUPAC_NAME>
3-propyl-3,13,23-triazahexacyclo[14.7.0.02,10.04,9.011,15.017,22]tricosa-1,4,6,8,10,15,17,19,21-nonaene-12,14-dione

> <PUBCHEM_IUPAC_SYSTEMATIC_NAME>
3-propyl-3,13,23-triazahexacyclo[14.7.0.02,10.04,9.011,15.017,22]tricosa-1,4,6,8,10,15,17,19,21-nonaene-12,14-dione

> <PUBCHEM_IUPAC_TRADITIONAL_NAME>
3-propyl-3,13,23-triazahexacyclo[14.7.0.02,10.04,9.011,15.017,22]tricosa-1,4,6,8,10,15,17,19,21-nonaene-12,14-quinone

> <PUBCHEM_IUPAC_INCHI>
InChI=1S/C23H17N3O2/c1-2-11-26-15-10-6-4-8-13(15)17-19-18(22(27)25-23(19)28)16-12-7-3-5-9-14(12)24-20(16)21(17)26/h3-10,24H,2,11H2,1H3,(H,25,27,28)

> <PUBCHEM_IUPAC_INCHIKEY>
MKBYRMKWMBPATP-UHFFFAOYSA-N

> <PUBCHEM_XLOGP3_AA>
4.4

> <PUBCHEM_EXACT_MASS>
367.132076794

> <PUBCHEM_MOLECULAR_FORMULA>
C23H17N3O2

> <PUBCHEM_MOLECULAR_WEIGHT>
367.4

> <PUBCHEM_SMILES>
CCCN1C2=CC=CC=C2C3=C4C(=C5C6=CC=CC=C6NC5=C31)C(=O)NC4=O

> <PUBCHEM_OPENEYE_CAN_SMILES>
CCCN1C2=CC=CC=C2C3=C4C(=C5C6=CC=CC=C6NC5=C31)C(=O)NC4=O

> <PUBCHEM_OPENEYE_ISO_SMILES>
CCCN1C2=CC=CC=C2C3=C4C(=C5C6=CC=CC=C6NC5=C31)C(=O)NC4=O

> <PUBCHEM_CACTVS_TPSA>
66.9

> <PUBCHEM_MONOISOTOPIC_WEIGHT>
367.132076794

> <PUBCHEM_TOTAL_CHARGE>
0

> <PUBCHEM_HEAVY_ATOM_COUNT>
28

> <PUBCHEM_ATOM_DEF_STEREO_COUNT>
0

> <PUBCHEM_ATOM_UDEF_STEREO_COUNT>
0

> <PUBCHEM_BOND_DEF_STEREO_COUNT>
0

> <PUBCHEM_BOND_UDEF_STEREO_COUNT>
0

> <PUBCHEM_ISOTOPIC_ATOM_COUNT>
0

> <PUBCHEM_COMPONENT_COUNT>
1

> <PUBCHEM_CACTVS_TAUTO_COUNT>
-1

> <PUBCHEM_COORDINATE_TYPE>
1
5
255

> <PUBCHEM_BONDANNOTATIONS>
10  12  8
11  13  8
11  19  8
13  21  8
14  16  8
14  22  8
16  23  8
19  24  8
21  25  8
22  27  8
23  28  8
24  25  8
27  28  8
3  13  8
3  6  8
4  16  8
4  8  8
6  7  8
6  8  8
7  10  8
7  11  8
8  9  8
9  12  8
9  14  8

$$$$
