49830881
  -OEChem-03202501522D

 34 36  0     0  0  0  0  0  0999 V2000
    2.0000   -3.4026    0.0000 Cl  0  0  0  0  0  0  0  0  0  0  0  0
    3.7320   -4.4026    0.0000 Cl  0  0  0  0  0  0  0  0  0  0  0  0
    2.8910    1.8045    0.0000 O   0  0  0  0  0  0  0  0  0  0  0  0
    4.5981    3.5116    0.0000 O   0  0  0  0  0  0  0  0  0  0  0  0
    4.5981    0.0974    0.0000 N   0  0  0  0  0  0  0  0  0  0  0  0
    6.3052    1.8045    0.0000 N   0  0  0  0  0  0  0  0  0  0  0  0
    7.8052    4.4026    0.0000 N   0  0  0  0  0  0  0  0  0  0  0  0
    4.5981    1.0974    0.0000 C   0  0  0  0  0  0  0  0  0  0  0  0
    5.3052    1.8045    0.0000 C   0  0  0  0  0  0  0  0  0  0  0  0
    3.7320   -0.4026    0.0000 C   0  0  0  0  0  0  0  0  0  0  0  0
    3.8910    1.8045    0.0000 C   0  0  0  0  0  0  0  0  0  0  0  0
    4.5981    2.5116    0.0000 C   0  0  0  0  0  0  0  0  0  0  0  0
    3.7320   -1.4026    0.0000 C   0  0  0  0  0  0  0  0  0  0  0  0
    6.8052    2.6705    0.0000 C   0  0  0  0  0  0  0  0  0  0  0  0
    2.8660   -1.9026    0.0000 C   0  0  0  0  0  0  0  0  0  0  0  0
    4.5981   -1.9026    0.0000 C   0  0  0  0  0  0  0  0  0  0  0  0
    2.8660   -2.9026    0.0000 C   0  0  0  0  0  0  0  0  0  0  0  0
    4.5981   -2.9026    0.0000 C   0  0  0  0  0  0  0  0  0  0  0  0
    6.3052    3.5366    0.0000 C   0  0  0  0  0  0  0  0  0  0  0  0
    7.8052    2.6705    0.0000 C   0  0  0  0  0  0  0  0  0  0  0  0
    3.7320   -3.4026    0.0000 C   0  0  0  0  0  0  0  0  0  0  0  0
    6.8052    4.4026    0.0000 C   0  0  0  0  0  0  0  0  0  0  0  0
    8.3052    3.5366    0.0000 C   0  0  0  0  0  0  0  0  0  0  0  0
    3.5200    0.1800    0.0000 H   0  0  0  0  0  0  0  0  0  0  0  0
    3.1215   -0.5103    0.0000 H   0  0  0  0  0  0  0  0  0  0  0  0
    5.1350   -0.2126    0.0000 H   0  0  0  0  0  0  0  0  0  0  0  0
    6.6152    1.2676    0.0000 H   0  0  0  0  0  0  0  0  0  0  0  0
    2.3291   -1.5926    0.0000 H   0  0  0  0  0  0  0  0  0  0  0  0
    5.1350   -1.5926    0.0000 H   0  0  0  0  0  0  0  0  0  0  0  0
    5.1350   -3.2126    0.0000 H   0  0  0  0  0  0  0  0  0  0  0  0
    5.6852    3.5366    0.0000 H   0  0  0  0  0  0  0  0  0  0  0  0
    8.1152    2.1336    0.0000 H   0  0  0  0  0  0  0  0  0  0  0  0
    6.4952    4.9395    0.0000 H   0  0  0  0  0  0  0  0  0  0  0  0
    8.9252    3.5366    0.0000 H   0  0  0  0  0  0  0  0  0  0  0  0
  1 17  1  0  0  0  0
  2 21  1  0  0  0  0
  3 11  2  0  0  0  0
  4 12  2  0  0  0  0
  5  8  1  0  0  0  0
  5 10  1  0  0  0  0
  5 26  1  0  0  0  0
  6  9  1  0  0  0  0
  6 14  1  0  0  0  0
  6 27  1  0  0  0  0
  7 22  2  0  0  0  0
  7 23  1  0  0  0  0
  8  9  2  0  0  0  0
  8 11  1  0  0  0  0
  9 12  1  0  0  0  0
 10 13  1  0  0  0  0
 10 24  1  0  0  0  0
 10 25  1  0  0  0  0
 11 12  1  0  0  0  0
 13 15  2  0  0  0  0
 13 16  1  0  0  0  0
 14 19  2  0  0  0  0
 14 20  1  0  0  0  0
 15 17  1  0  0  0  0
 15 28  1  0  0  0  0
 16 18  2  0  0  0  0
 16 29  1  0  0  0  0
 17 21  2  0  0  0  0
 18 21  1  0  0  0  0
 18 30  1  0  0  0  0
 19 22  1  0  0  0  0
 19 31  1  0  0  0  0
 20 23  2  0  0  0  0
 20 32  1  0  0  0  0
 22 33  1  0  0  0  0
 23 34  1  0  0  0  0
M  END
> <PUBCHEM_COMPOUND_CID>
49830881

> <PUBCHEM_COMPOUND_CANONICALIZED>
1

> <PUBCHEM_CACTVS_COMPLEXITY>
517

> <PUBCHEM_CACTVS_HBOND_ACCEPTOR>
5

> <PUBCHEM_CACTVS_HBOND_DONOR>
2

> <PUBCHEM_CACTVS_ROTATABLE_BOND>
5

> <PUBCHEM_CACTVS_SUBSKEYS>
AAADccB7MAAGAAAAAAAAAAAAAABAAAAAAAA8QAAAAAAAAAABwAAAHgIQAAAADA7BmiQ8wJLIEACoArR3RACCgCAxByAI2uG4ZtgIIGrB0/GEJAhgkADIyUcQgAAOBAAAIAAAAAQIAABAAAAACAAAAAAAAA==

> <PUBCHEM_IUPAC_OPENEYE_NAME>
3-[(3,4-dichlorophenyl)methylamino]-4-(4-pyridylamino)cyclobut-3-ene-1,2-dione

> <PUBCHEM_IUPAC_CAS_NAME>
3-[(3,4-dichlorophenyl)methylamino]-4-(pyridin-4-ylamino)cyclobut-3-ene-1,2-dione

> <PUBCHEM_IUPAC_NAME_MARKUP>
3-[(3,4-dichlorophenyl)methylamino]-4-(pyridin-4-ylamino)cyclobut-3-ene-1,2-dione

> <PUBCHEM_IUPAC_NAME>
3-[(3,4-dichlorophenyl)methylamino]-4-(pyridin-4-ylamino)cyclobut-3-ene-1,2-dione

> <PUBCHEM_IUPAC_SYSTEMATIC_NAME>
3-[(3,4-dichlorophenyl)methylamino]-4-(pyridin-4-ylamino)cyclobut-3-ene-1,2-dione

> <PUBCHEM_IUPAC_TRADITIONAL_NAME>
3-[(3,4-dichlorobenzyl)amino]-4-(4-pyridylamino)cyclobut-3-ene-1,2-quinone

> <PUBCHEM_IUPAC_INCHI>
InChI=1S/C16H11Cl2N3O2/c17-11-2-1-9(7-12(11)18)8-20-13-14(16(23)15(13)22)21-10-3-5-19-6-4-10/h1-7,20H,8H2,(H,19,21)

> <PUBCHEM_IUPAC_INCHIKEY>
NEWAULHLLUCDPD-UHFFFAOYSA-N

> <PUBCHEM_XLOGP3_AA>
3.2

> <PUBCHEM_EXACT_MASS>
347.0228320

> <PUBCHEM_MOLECULAR_FORMULA>
C16H11Cl2N3O2

> <PUBCHEM_MOLECULAR_WEIGHT>
348.2

> <PUBCHEM_SMILES>
C1=CC(=C(C=C1CNC2=C(C(=O)C2=O)NC3=CC=NC=C3)Cl)Cl

> <PUBCHEM_OPENEYE_CAN_SMILES>
C1=CC(=C(C=C1CNC2=C(C(=O)C2=O)NC3=CC=NC=C3)Cl)Cl

> <PUBCHEM_OPENEYE_ISO_SMILES>
C1=CC(=C(C=C1CNC2=C(C(=O)C2=O)NC3=CC=NC=C3)Cl)Cl

> <PUBCHEM_CACTVS_TPSA>
71.1

> <PUBCHEM_MONOISOTOPIC_WEIGHT>
347.0228320

> <PUBCHEM_TOTAL_CHARGE>
0

> <PUBCHEM_HEAVY_ATOM_COUNT>
23

> <PUBCHEM_ATOM_DEF_STEREO_COUNT>
0

> <PUBCHEM_ATOM_UDEF_STEREO_COUNT>
0

> <PUBCHEM_BOND_DEF_STEREO_COUNT>
0

> <PUBCHEM_BOND_UDEF_STEREO_COUNT>
0

> <PUBCHEM_ISOTOPIC_ATOM_COUNT>
0

> <PUBCHEM_COMPONENT_COUNT>
1

> <PUBCHEM_CACTVS_TAUTO_COUNT>
-1

> <PUBCHEM_COORDINATE_TYPE>
1
5
255

> <PUBCHEM_BONDANNOTATIONS>
11  12  8
13  15  8
13  16  8
14  19  8
14  20  8
15  17  8
16  18  8
17  21  8
18  21  8
19  22  8
20  23  8
7  22  8
7  23  8
8  11  8
8  9  8
9  12  8

$$$$
