11661959
  -OEChem-03202504432D

 53 55  0     1  0  0  0  0  0999 V2000
   11.5078   -3.5272    0.0000 Cl  0  0  0  0  0  0  0  0  0  0  0  0
    9.7875   -2.5072    0.0000 F   0  0  0  0  0  0  0  0  0  0  0  0
    6.3301    2.5272    0.0000 O   0  0  0  0  0  0  0  0  0  0  0  0
    3.7320    2.0272    0.0000 O   0  0  0  0  0  0  0  0  0  0  0  0
    5.4641    1.0272    0.0000 N   0  0  3  0  0  0  0  0  0  0  0  0
    2.8660    0.5272    0.0000 N   0  0  0  0  0  0  0  0  0  0  0  0
    9.8106   -0.5074    0.0000 N   0  0  0  0  0  0  0  0  0  0  0  0
    9.8222    2.5619    0.0000 N   0  0  0  0  0  0  0  0  0  0  0  0
   10.7282    1.0064    0.0000 N   0  0  0  0  0  0  0  0  0  0  0  0
    6.3301    0.5272    0.0000 C   0  0  0  0  0  0  0  0  0  0  0  0
    4.5981    0.5272    0.0000 C   0  0  2  0  0  0  0  0  0  0  0  0
    7.1962    1.0272    0.0000 C   0  0  0  0  0  0  0  0  0  0  0  0
    8.0622    0.5272    0.0000 C   0  0  0  0  0  0  0  0  0  0  0  0
    7.1962    2.0272    0.0000 C   0  0  0  0  0  0  0  0  0  0  0  0
    8.9282    1.0272    0.0000 C   0  0  0  0  0  0  0  0  0  0  0  0
    5.4641    2.0272    0.0000 C   0  0  0  0  0  0  0  0  0  0  0  0
    4.5981   -0.4728    0.0000 C   0  0  0  0  0  0  0  0  0  0  0  0
    3.7320    1.0272    0.0000 C   0  0  0  0  0  0  0  0  0  0  0  0
    8.9282    2.0272    0.0000 C   0  0  0  0  0  0  0  0  0  0  0  0
    8.0622    2.5272    0.0000 C   0  0  0  0  0  0  0  0  0  0  0  0
    9.8222    0.4926    0.0000 C   0  0  0  0  0  0  0  0  0  0  0  0
   10.7282    2.0480    0.0000 C   0  0  0  0  0  0  0  0  0  0  0  0
   10.6708   -1.0174    0.0000 C   0  0  0  0  0  0  0  0  0  0  0  0
    2.0000    1.0272    0.0000 C   0  0  0  0  0  0  0  0  0  0  0  0
    6.3301    3.5272    0.0000 C   0  0  0  0  0  0  0  0  0  0  0  0
   10.6592   -2.0173    0.0000 C   0  0  0  0  0  0  0  0  0  0  0  0
   11.5425   -0.5274    0.0000 C   0  0  0  0  0  0  0  0  0  0  0  0
   11.5194   -2.5273    0.0000 C   0  0  0  0  0  0  0  0  0  0  0  0
   12.4027   -1.0374    0.0000 C   0  0  0  0  0  0  0  0  0  0  0  0
   12.3911   -2.0373    0.0000 C   0  0  0  0  0  0  0  0  0  0  0  0
    5.9316    0.0523    0.0000 H   0  0  0  0  0  0  0  0  0  0  0  0
    6.7287    0.0523    0.0000 H   0  0  0  0  0  0  0  0  0  0  0  0
    5.1350    0.2172    0.0000 H   0  0  0  0  0  0  0  0  0  0  0  0
    8.0622   -0.0928    0.0000 H   0  0  0  0  0  0  0  0  0  0  0  0
    6.0841    2.0272    0.0000 H   0  0  0  0  0  0  0  0  0  0  0  0
    5.4641    2.6472    0.0000 H   0  0  0  0  0  0  0  0  0  0  0  0
    4.8441    2.0272    0.0000 H   0  0  0  0  0  0  0  0  0  0  0  0
    3.9781   -0.4728    0.0000 H   0  0  0  0  0  0  0  0  0  0  0  0
    4.5981   -1.0928    0.0000 H   0  0  0  0  0  0  0  0  0  0  0  0
    5.2181   -0.4728    0.0000 H   0  0  0  0  0  0  0  0  0  0  0  0
    8.0622    3.1472    0.0000 H   0  0  0  0  0  0  0  0  0  0  0  0
    2.8660   -0.0928    0.0000 H   0  0  0  0  0  0  0  0  0  0  0  0
    9.2701   -0.8112    0.0000 H   0  0  0  0  0  0  0  0  0  0  0  0
   11.2639    2.3601    0.0000 H   0  0  0  0  0  0  0  0  0  0  0  0
    2.3100    1.5642    0.0000 H   0  0  0  0  0  0  0  0  0  0  0  0
    1.4631    1.3372    0.0000 H   0  0  0  0  0  0  0  0  0  0  0  0
    1.6900    0.4903    0.0000 H   0  0  0  0  0  0  0  0  0  0  0  0
    6.9501    3.5272    0.0000 H   0  0  0  0  0  0  0  0  0  0  0  0
    6.3301    4.1472    0.0000 H   0  0  0  0  0  0  0  0  0  0  0  0
    5.7101    3.5272    0.0000 H   0  0  0  0  0  0  0  0  0  0  0  0
   11.5497    0.0925    0.0000 H   0  0  0  0  0  0  0  0  0  0  0  0
   12.9432   -0.7336    0.0000 H   0  0  0  0  0  0  0  0  0  0  0  0
   12.9245   -2.3535    0.0000 H   0  0  0  0  0  0  0  0  0  0  0  0
  1 28  1  0  0  0  0
  2 26  1  0  0  0  0
  3 14  1  0  0  0  0
  3 25  1  0  0  0  0
  4 18  2  0  0  0  0
  5 10  1  0  0  0  0
 11  5  1  6  0  0  0
  5 16  1  0  0  0  0
  6 18  1  0  0  0  0
  6 24  1  0  0  0  0
  6 42  1  0  0  0  0
  7 21  1  0  0  0  0
  7 23  1  0  0  0  0
  7 43  1  0  0  0  0
  8 19  1  0  0  0  0
  8 22  2  0  0  0  0
  9 21  2  0  0  0  0
  9 22  1  0  0  0  0
 10 12  1  0  0  0  0
 10 31  1  0  0  0  0
 10 32  1  0  0  0  0
 11 17  1  0  0  0  0
 11 18  1  0  0  0  0
 11 33  1  0  0  0  0
 12 13  2  0  0  0  0
 12 14  1  0  0  0  0
 13 15  1  0  0  0  0
 13 34  1  0  0  0  0
 14 20  2  0  0  0  0
 15 19  2  0  0  0  0
 15 21  1  0  0  0  0
 16 35  1  0  0  0  0
 16 36  1  0  0  0  0
 16 37  1  0  0  0  0
 17 38  1  0  0  0  0
 17 39  1  0  0  0  0
 17 40  1  0  0  0  0
 19 20  1  0  0  0  0
 20 41  1  0  0  0  0
 22 44  1  0  0  0  0
 23 26  2  0  0  0  0
 23 27  1  0  0  0  0
 24 45  1  0  0  0  0
 24 46  1  0  0  0  0
 24 47  1  0  0  0  0
 25 48  1  0  0  0  0
 25 49  1  0  0  0  0
 25 50  1  0  0  0  0
 26 28  1  0  0  0  0
 27 29  2  0  0  0  0
 27 51  1  0  0  0  0
 28 30  2  0  0  0  0
 29 30  1  0  0  0  0
 29 52  1  0  0  0  0
 30 53  1  0  0  0  0
M  END
> <PUBCHEM_COMPOUND_CID>
11661959

> <PUBCHEM_COMPOUND_CANONICALIZED>
1

> <PUBCHEM_CACTVS_COMPLEXITY>
574

> <PUBCHEM_CACTVS_HBOND_ACCEPTOR>
7

> <PUBCHEM_CACTVS_HBOND_DONOR>
2

> <PUBCHEM_CACTVS_ROTATABLE_BOND>
7

> <PUBCHEM_CACTVS_SUBSKEYS>
AAADceB7sQAEAAAAAAAAAAAAAAAAAAAAAAA8YIAAAAAAAACx9AAAHwIQAAAADC7Bni439vfIFACoAydzdACCiCkxJ6AJ2KG+bpiMbuLF+/uUNChu0hvI6CeQ0GMOKAACAgIKAABQAAQEBBQAAAAAAAAAAA==

> <PUBCHEM_IUPAC_OPENEYE_NAME>
(2R)-2-[[4-(3-chloro-2-fluoro-anilino)-7-methoxy-quinazolin-6-yl]methyl-methyl-amino]-N-methyl-propanamide

> <PUBCHEM_IUPAC_CAS_NAME>
(2R)-2-[[4-(3-chloro-2-fluoroanilino)-7-methoxy-6-quinazolinyl]methyl-methylamino]-N-methylpropanamide

> <PUBCHEM_IUPAC_NAME_MARKUP>
(2<I>R</I>)-2-[[4-(3-chloro-2-fluoroanilino)-7-methoxyquinazolin-6-yl]methyl-methylamino]-<I>N</I>-methylpropanamide

> <PUBCHEM_IUPAC_NAME>
(2R)-2-[[4-(3-chloro-2-fluoroanilino)-7-methoxyquinazolin-6-yl]methyl-methylamino]-N-methylpropanamide

> <PUBCHEM_IUPAC_SYSTEMATIC_NAME>
(2R)-2-[[4-[(3-chloranyl-2-fluoranyl-phenyl)amino]-7-methoxy-quinazolin-6-yl]methyl-methyl-amino]-N-methyl-propanamide

> <PUBCHEM_IUPAC_TRADITIONAL_NAME>
(2R)-2-[[4-(3-chloro-2-fluoro-anilino)-7-methoxy-quinazolin-6-yl]methyl-methyl-amino]-N-methyl-propionamide

> <PUBCHEM_IUPAC_INCHI>
InChI=1S/C21H23ClFN5O2/c1-12(21(29)24-2)28(3)10-13-8-14-17(9-18(13)30-4)25-11-26-20(14)27-16-7-5-6-15(22)19(16)23/h5-9,11-12H,10H2,1-4H3,(H,24,29)(H,25,26,27)/t12-/m1/s1

> <PUBCHEM_IUPAC_INCHIKEY>
QWNVYGCSKJLQIT-GFCCVEGCSA-N

> <PUBCHEM_XLOGP3_AA>
3.7

> <PUBCHEM_EXACT_MASS>
431.1524308

> <PUBCHEM_MOLECULAR_FORMULA>
C21H23ClFN5O2

> <PUBCHEM_MOLECULAR_WEIGHT>
431.9

> <PUBCHEM_SMILES>
C[C@H](C(=O)NC)N(C)CC1=CC2=C(C=C1OC)N=CN=C2NC3=C(C(=CC=C3)Cl)F

> <PUBCHEM_OPENEYE_CAN_SMILES>
CC(C(=O)NC)N(C)CC1=CC2=C(C=C1OC)N=CN=C2NC3=C(C(=CC=C3)Cl)F

> <PUBCHEM_OPENEYE_ISO_SMILES>
C[C@H](C(=O)NC)N(C)CC1=CC2=C(C=C1OC)N=CN=C2NC3=C(C(=CC=C3)Cl)F

> <PUBCHEM_CACTVS_TPSA>
79.4

> <PUBCHEM_MONOISOTOPIC_WEIGHT>
431.1524308

> <PUBCHEM_TOTAL_CHARGE>
0

> <PUBCHEM_HEAVY_ATOM_COUNT>
30

> <PUBCHEM_ATOM_DEF_STEREO_COUNT>
1

> <PUBCHEM_ATOM_UDEF_STEREO_COUNT>
0

> <PUBCHEM_BOND_DEF_STEREO_COUNT>
0

> <PUBCHEM_BOND_UDEF_STEREO_COUNT>
0

> <PUBCHEM_ISOTOPIC_ATOM_COUNT>
0

> <PUBCHEM_COMPONENT_COUNT>
1

> <PUBCHEM_CACTVS_TAUTO_COUNT>
-1

> <PUBCHEM_COORDINATE_TYPE>
1
5
255

> <PUBCHEM_BONDANNOTATIONS>
12  13  8
12  14  8
13  15  8
14  20  8
15  19  8
15  21  8
19  20  8
23  26  8
23  27  8
26  28  8
27  29  8
28  30  8
29  30  8
11  5  6
8  19  8
8  22  8
9  21  8
9  22  8

$$$$
