49830348
  -OEChem-03202503562D

 68 72  0     1  0  0  0  0  0999 V2000
    4.6783   -0.8760    0.0000 S   0  0  0  0  0  0  0  0  0  0  0  0
    2.5526   -5.4372    0.0000 O   0  0  0  0  0  0  0  0  0  0  0  0
    7.5673    3.9975    0.0000 O   0  0  0  0  0  0  0  0  0  0  0  0
    3.3660   -3.6101    0.0000 N   0  0  0  0  0  0  0  0  0  0  0  0
    2.3660   -3.6101    0.0000 N   0  0  0  0  0  0  0  0  0  0  0  0
    4.1349   -6.1417    0.0000 N   0  0  0  0  0  0  0  0  0  0  0  0
    2.0000    0.4287    0.0000 N   0  0  0  0  0  0  0  0  0  0  0  0
    2.8660    1.9287    0.0000 N   0  0  0  0  0  0  0  0  0  0  0  0
    5.9209    4.5355    0.0000 N   0  0  0  0  0  0  0  0  0  0  0  0
    7.2101    5.6923    0.0000 N   0  0  0  0  0  0  0  0  0  0  0  0
    3.9538   -4.4191    0.0000 C   0  0  3  0  0  0  0  0  0  0  0  0
    2.8660   -1.0713    0.0000 C   0  0  0  0  0  0  0  0  0  0  0  0
    3.7320   -0.5713    0.0000 C   0  0  0  0  0  0  0  0  0  0  0  0
    3.7320    0.4287    0.0000 C   0  0  0  0  0  0  0  0  0  0  0  0
    2.8660   -2.0713    0.0000 C   0  0  0  0  0  0  0  0  0  0  0  0
    4.6783    0.7335    0.0000 C   0  0  0  0  0  0  0  0  0  0  0  0
    3.6750   -2.6591    0.0000 C   0  0  0  0  0  0  0  0  0  0  0  0
    2.8660    0.9287    0.0000 C   0  0  0  0  0  0  0  0  0  0  0  0
    4.9889    1.6840    0.0000 C   0  0  0  0  0  0  0  0  0  0  0  0
    2.0570   -2.6591    0.0000 C   0  0  0  0  0  0  0  0  0  0  0  0
    3.5471   -5.3327    0.0000 C   0  0  0  0  0  0  0  0  0  0  0  0
    4.9483   -4.3146    0.0000 C   0  0  0  0  0  0  0  0  0  0  0  0
    5.2619   -0.0713    0.0000 C   0  0  0  0  0  0  0  0  0  0  0  0
    2.0000   -0.5713    0.0000 C   0  0  0  0  0  0  0  0  0  0  0  0
    4.3211    2.4283    0.0000 C   0  0  0  0  0  0  0  0  0  0  0  0
    5.9674    1.8902    0.0000 C   0  0  0  0  0  0  0  0  0  0  0  0
    5.6103    3.5850    0.0000 C   0  0  0  0  0  0  0  0  0  0  0  0
    4.6318    3.3788    0.0000 C   0  0  0  0  0  0  0  0  0  0  0  0
    6.2781    2.8407    0.0000 C   0  0  0  0  0  0  0  0  0  0  0  0
    3.7281   -7.0552    0.0000 C   0  0  0  0  0  0  0  0  0  0  0  0
    5.1294   -6.0372    0.0000 C   0  0  0  0  0  0  0  0  0  0  0  0
    6.8994    4.7418    0.0000 C   0  0  0  0  0  0  0  0  0  0  0  0
    8.1886    5.8985    0.0000 C   0  0  0  0  0  0  0  0  0  0  0  0
    8.8564    5.1542    0.0000 C   0  0  0  0  0  0  0  0  0  0  0  0
    8.4993    6.8490    0.0000 C   0  0  0  0  0  0  0  0  0  0  0  0
   10.1456    6.3109    0.0000 C   0  0  0  0  0  0  0  0  0  0  0  0
    9.8349    5.3604    0.0000 C   0  0  0  0  0  0  0  0  0  0  0  0
    9.4778    7.0552    0.0000 C   0  0  0  0  0  0  0  0  0  0  0  0
   11.1241    6.5172    0.0000 C   0  0  0  0  0  0  0  0  0  0  0  0
    4.2060   -3.8527    0.0000 H   0  0  0  0  0  0  0  0  0  0  0  0
    4.2647   -2.4675    0.0000 H   0  0  0  0  0  0  0  0  0  0  0  0
    1.4674   -2.4675    0.0000 H   0  0  0  0  0  0  0  0  0  0  0  0
    5.0131   -4.9312    0.0000 H   0  0  0  0  0  0  0  0  0  0  0  0
    5.5649   -4.2498    0.0000 H   0  0  0  0  0  0  0  0  0  0  0  0
    4.8835   -3.6980    0.0000 H   0  0  0  0  0  0  0  0  0  0  0  0
    5.8819   -0.0713    0.0000 H   0  0  0  0  0  0  0  0  0  0  0  0
    1.4631   -0.8813    0.0000 H   0  0  0  0  0  0  0  0  0  0  0  0
    3.7144    2.3004    0.0000 H   0  0  0  0  0  0  0  0  0  0  0  0
    6.3815    1.4287    0.0000 H   0  0  0  0  0  0  0  0  0  0  0  0
    4.2177    3.8403    0.0000 H   0  0  0  0  0  0  0  0  0  0  0  0
    6.8848    2.9686    0.0000 H   0  0  0  0  0  0  0  0  0  0  0  0
    2.3291    2.2387    0.0000 H   0  0  0  0  0  0  0  0  0  0  0  0
    3.4030    2.2387    0.0000 H   0  0  0  0  0  0  0  0  0  0  0  0
    3.1617   -6.8031    0.0000 H   0  0  0  0  0  0  0  0  0  0  0  0
    3.4760   -7.6216    0.0000 H   0  0  0  0  0  0  0  0  0  0  0  0
    4.2945   -7.3074    0.0000 H   0  0  0  0  0  0  0  0  0  0  0  0
    5.1942   -6.6538    0.0000 H   0  0  0  0  0  0  0  0  0  0  0  0
    5.7460   -5.9724    0.0000 H   0  0  0  0  0  0  0  0  0  0  0  0
    5.0646   -5.4206    0.0000 H   0  0  0  0  0  0  0  0  0  0  0  0
    5.5069    4.9970    0.0000 H   0  0  0  0  0  0  0  0  0  0  0  0
    6.7960    6.1537    0.0000 H   0  0  0  0  0  0  0  0  0  0  0  0
    8.6638    4.5649    0.0000 H   0  0  0  0  0  0  0  0  0  0  0  0
    8.0852    7.3105    0.0000 H   0  0  0  0  0  0  0  0  0  0  0  0
   10.2490    4.8990    0.0000 H   0  0  0  0  0  0  0  0  0  0  0  0
    9.6704    7.6446    0.0000 H   0  0  0  0  0  0  0  0  0  0  0  0
   11.2520    5.9105    0.0000 H   0  0  0  0  0  0  0  0  0  0  0  0
   11.7308    6.6450    0.0000 H   0  0  0  0  0  0  0  0  0  0  0  0
   10.9963    7.1238    0.0000 H   0  0  0  0  0  0  0  0  0  0  0  0
  1 13  1  0  0  0  0
  1 23  1  0  0  0  0
  2 21  2  0  0  0  0
  3 32  2  0  0  0  0
  4  5  1  0  0  0  0
  4 11  1  0  0  0  0
  4 17  1  0  0  0  0
  5 20  2  0  0  0  0
  6 21  1  0  0  0  0
  6 30  1  0  0  0  0
  6 31  1  0  0  0  0
  7 18  2  0  0  0  0
  7 24  1  0  0  0  0
  8 18  1  0  0  0  0
  8 52  1  0  0  0  0
  8 53  1  0  0  0  0
  9 27  1  0  0  0  0
  9 32  1  0  0  0  0
  9 60  1  0  0  0  0
 10 32  1  0  0  0  0
 10 33  1  0  0  0  0
 10 61  1  0  0  0  0
 11 21  1  0  0  0  0
 11 22  1  0  0  0  0
 11 40  1  0  0  0  0
 12 13  1  0  0  0  0
 12 15  1  0  0  0  0
 12 24  2  0  0  0  0
 13 14  2  0  0  0  0
 14 16  1  0  0  0  0
 14 18  1  0  0  0  0
 15 17  2  0  0  0  0
 15 20  1  0  0  0  0
 16 19  1  0  0  0  0
 16 23  2  0  0  0  0
 17 41  1  0  0  0  0
 19 25  2  0  0  0  0
 19 26  1  0  0  0  0
 20 42  1  0  0  0  0
 22 43  1  0  0  0  0
 22 44  1  0  0  0  0
 22 45  1  0  0  0  0
 23 46  1  0  0  0  0
 24 47  1  0  0  0  0
 25 28  1  0  0  0  0
 25 48  1  0  0  0  0
 26 29  2  0  0  0  0
 26 49  1  0  0  0  0
 27 28  2  0  0  0  0
 27 29  1  0  0  0  0
 28 50  1  0  0  0  0
 29 51  1  0  0  0  0
 30 54  1  0  0  0  0
 30 55  1  0  0  0  0
 30 56  1  0  0  0  0
 31 57  1  0  0  0  0
 31 58  1  0  0  0  0
 31 59  1  0  0  0  0
 33 34  2  0  0  0  0
 33 35  1  0  0  0  0
 34 37  1  0  0  0  0
 34 62  1  0  0  0  0
 35 38  2  0  0  0  0
 35 63  1  0  0  0  0
 36 37  2  0  0  0  0
 36 38  1  0  0  0  0
 36 39  1  0  0  0  0
 37 64  1  0  0  0  0
 38 65  1  0  0  0  0
 39 66  1  0  0  0  0
 39 67  1  0  0  0  0
 39 68  1  0  0  0  0
M  END
> <PUBCHEM_COMPOUND_CID>
49830348

> <PUBCHEM_COMPOUND_CANONICALIZED>
1

> <PUBCHEM_CACTVS_COMPLEXITY>
845

> <PUBCHEM_CACTVS_HBOND_ACCEPTOR>
6

> <PUBCHEM_CACTVS_HBOND_DONOR>
3

> <PUBCHEM_CACTVS_ROTATABLE_BOND>
6

> <PUBCHEM_CACTVS_SUBSKEYS>
AAADceB7sABAAAAAAAAAAAAAAAAAAWJAAAA8YIAAAAAAAFgB/gAAHgQYAAAADCjF2gS/8dPIEAiuAjd3dACThKkxijAY2DGoZJiIYOLg0fGUpAxongLoyCcQgMAOiAAAAAAAAAAQAAAAAAAAAAAAAAAAAA==

> <PUBCHEM_IUPAC_OPENEYE_NAME>
2-[4-[4-amino-3-[4-(p-tolylcarbamoylamino)phenyl]thieno[3,2-c]pyridin-7-yl]pyrazol-1-yl]-N,N-dimethyl-propanamide

> <PUBCHEM_IUPAC_CAS_NAME>
2-[4-[4-amino-3-[4-[[(4-methylanilino)-oxomethyl]amino]phenyl]-7-thieno[3,2-c]pyridinyl]-1-pyrazolyl]-N,N-dimethylpropanamide

> <PUBCHEM_IUPAC_NAME_MARKUP>
2-[4-[4-amino-3-[4-[(4-methylphenyl)carbamoylamino]phenyl]thieno[3,2-c]pyridin-7-yl]pyrazol-1-yl]-<I>N</I>,<I>N</I>-dimethylpropanamide

> <PUBCHEM_IUPAC_NAME>
2-[4-[4-amino-3-[4-[(4-methylphenyl)carbamoylamino]phenyl]thieno[3,2-c]pyridin-7-yl]pyrazol-1-yl]-N,N-dimethylpropanamide

> <PUBCHEM_IUPAC_SYSTEMATIC_NAME>
2-[4-[4-azanyl-3-[4-[(4-methylphenyl)carbamoylamino]phenyl]thieno[3,2-c]pyridin-7-yl]pyrazol-1-yl]-N,N-dimethyl-propanamide

> <PUBCHEM_IUPAC_TRADITIONAL_NAME>
2-[4-[4-amino-3-[4-(p-tolylcarbamoylamino)phenyl]thieno[3,2-c]pyridin-7-yl]pyrazol-1-yl]-N,N-dimethyl-propionamide

> <PUBCHEM_IUPAC_INCHI>
InChI=1S/C29H29N7O2S/c1-17-5-9-21(10-6-17)33-29(38)34-22-11-7-19(8-12-22)24-16-39-26-23(14-31-27(30)25(24)26)20-13-32-36(15-20)18(2)28(37)35(3)4/h5-16,18H,1-4H3,(H2,30,31)(H2,33,34,38)

> <PUBCHEM_IUPAC_INCHIKEY>
MULNSLQVKKUPJN-UHFFFAOYSA-N

> <PUBCHEM_XLOGP3_AA>
4

> <PUBCHEM_EXACT_MASS>
539.21034437

> <PUBCHEM_MOLECULAR_FORMULA>
C29H29N7O2S

> <PUBCHEM_MOLECULAR_WEIGHT>
539.7

> <PUBCHEM_SMILES>
CC1=CC=C(C=C1)NC(=O)NC2=CC=C(C=C2)C3=CSC4=C3C(=NC=C4C5=CN(N=C5)C(C)C(=O)N(C)C)N

> <PUBCHEM_OPENEYE_CAN_SMILES>
CC1=CC=C(C=C1)NC(=O)NC2=CC=C(C=C2)C3=CSC4=C3C(=NC=C4C5=CN(N=C5)C(C)C(=O)N(C)C)N

> <PUBCHEM_OPENEYE_ISO_SMILES>
CC1=CC=C(C=C1)NC(=O)NC2=CC=C(C=C2)C3=CSC4=C3C(=NC=C4C5=CN(N=C5)C(C)C(=O)N(C)C)N

> <PUBCHEM_CACTVS_TPSA>
146

> <PUBCHEM_MONOISOTOPIC_WEIGHT>
539.21034437

> <PUBCHEM_TOTAL_CHARGE>
0

> <PUBCHEM_HEAVY_ATOM_COUNT>
39

> <PUBCHEM_ATOM_DEF_STEREO_COUNT>
0

> <PUBCHEM_ATOM_UDEF_STEREO_COUNT>
1

> <PUBCHEM_BOND_DEF_STEREO_COUNT>
0

> <PUBCHEM_BOND_UDEF_STEREO_COUNT>
0

> <PUBCHEM_ISOTOPIC_ATOM_COUNT>
0

> <PUBCHEM_COMPONENT_COUNT>
1

> <PUBCHEM_CACTVS_TAUTO_COUNT>
-1

> <PUBCHEM_COORDINATE_TYPE>
1
5
255

> <PUBCHEM_BONDANNOTATIONS>
1  13  8
1  23  8
11  22  3
12  13  8
12  24  8
13  14  8
14  16  8
14  18  8
15  17  8
15  20  8
16  23  8
19  25  8
19  26  8
25  28  8
26  29  8
27  28  8
27  29  8
33  34  8
33  35  8
34  37  8
35  38  8
36  37  8
36  38  8
4  17  8
4  5  8
5  20  8
7  18  8
7  24  8

$$$$
