1697
  -OEChem-03202505102D

 40 43  0     0  0  0  0  0  0999 V2000
    6.7210   -1.7552    0.0000 O   0  0  0  0  0  0  0  0  0  0  0  0
    6.7210    1.7552    0.0000 O   0  0  0  0  0  0  0  0  0  0  0  0
    2.8660   -1.0000    0.0000 N   0  0  0  0  0  0  0  0  0  0  0  0
    2.8660    1.0000    0.0000 N   0  0  0  0  0  0  0  0  0  0  0  0
    6.9939    0.0000    0.0000 N   0  0  0  0  0  0  0  0  0  0  0  0
    5.4641   -0.5000    0.0000 C   0  0  0  0  0  0  0  0  0  0  0  0
    5.4641    0.5000    0.0000 C   0  0  0  0  0  0  0  0  0  0  0  0
    3.7320   -0.5000    0.0000 C   0  0  0  0  0  0  0  0  0  0  0  0
    3.7320    0.5000    0.0000 C   0  0  0  0  0  0  0  0  0  0  0  0
    4.5981   -1.0000    0.0000 C   0  0  0  0  0  0  0  0  0  0  0  0
    4.5981    1.0000    0.0000 C   0  0  0  0  0  0  0  0  0  0  0  0
    6.4103   -0.8047    0.0000 C   0  0  0  0  0  0  0  0  0  0  0  0
    6.4103    0.8047    0.0000 C   0  0  0  0  0  0  0  0  0  0  0  0
    2.8660   -2.0000    0.0000 C   0  0  0  0  0  0  0  0  0  0  0  0
    2.8660    2.0000    0.0000 C   0  0  0  0  0  0  0  0  0  0  0  0
    3.7320   -2.5000    0.0000 C   0  0  0  0  0  0  0  0  0  0  0  0
    3.7320    2.5000    0.0000 C   0  0  0  0  0  0  0  0  0  0  0  0
    2.0000   -2.5000    0.0000 C   0  0  0  0  0  0  0  0  0  0  0  0
    2.0000    2.5000    0.0000 C   0  0  0  0  0  0  0  0  0  0  0  0
    3.7320   -3.5000    0.0000 C   0  0  0  0  0  0  0  0  0  0  0  0
    3.7320    3.5000    0.0000 C   0  0  0  0  0  0  0  0  0  0  0  0
    2.0000   -3.5000    0.0000 C   0  0  0  0  0  0  0  0  0  0  0  0
    2.0000    3.5000    0.0000 C   0  0  0  0  0  0  0  0  0  0  0  0
    2.8660   -4.0000    0.0000 C   0  0  0  0  0  0  0  0  0  0  0  0
    2.8660    4.0000    0.0000 C   0  0  0  0  0  0  0  0  0  0  0  0
    4.5981   -1.6200    0.0000 H   0  0  0  0  0  0  0  0  0  0  0  0
    4.5981    1.6200    0.0000 H   0  0  0  0  0  0  0  0  0  0  0  0
    2.3291   -0.6900    0.0000 H   0  0  0  0  0  0  0  0  0  0  0  0
    2.3291    0.6900    0.0000 H   0  0  0  0  0  0  0  0  0  0  0  0
    7.6139    0.0000    0.0000 H   0  0  0  0  0  0  0  0  0  0  0  0
    4.2690   -2.1900    0.0000 H   0  0  0  0  0  0  0  0  0  0  0  0
    4.2690    2.1900    0.0000 H   0  0  0  0  0  0  0  0  0  0  0  0
    1.4631   -2.1900    0.0000 H   0  0  0  0  0  0  0  0  0  0  0  0
    1.4631    2.1900    0.0000 H   0  0  0  0  0  0  0  0  0  0  0  0
    4.2690   -3.8100    0.0000 H   0  0  0  0  0  0  0  0  0  0  0  0
    4.2690    3.8100    0.0000 H   0  0  0  0  0  0  0  0  0  0  0  0
    1.4631   -3.8100    0.0000 H   0  0  0  0  0  0  0  0  0  0  0  0
    1.4631    3.8100    0.0000 H   0  0  0  0  0  0  0  0  0  0  0  0
    2.8660   -4.6200    0.0000 H   0  0  0  0  0  0  0  0  0  0  0  0
    2.8660    4.6200    0.0000 H   0  0  0  0  0  0  0  0  0  0  0  0
  1 12  2  0  0  0  0
  2 13  2  0  0  0  0
  3  8  1  0  0  0  0
  3 14  1  0  0  0  0
  3 28  1  0  0  0  0
  4  9  1  0  0  0  0
  4 15  1  0  0  0  0
  4 29  1  0  0  0  0
  5 12  1  0  0  0  0
  5 13  1  0  0  0  0
  5 30  1  0  0  0  0
  6  7  1  0  0  0  0
  6 10  2  0  0  0  0
  6 12  1  0  0  0  0
  7 11  2  0  0  0  0
  7 13  1  0  0  0  0
  8  9  2  0  0  0  0
  8 10  1  0  0  0  0
  9 11  1  0  0  0  0
 10 26  1  0  0  0  0
 11 27  1  0  0  0  0
 14 16  2  0  0  0  0
 14 18  1  0  0  0  0
 15 17  2  0  0  0  0
 15 19  1  0  0  0  0
 16 20  1  0  0  0  0
 16 31  1  0  0  0  0
 17 21  1  0  0  0  0
 17 32  1  0  0  0  0
 18 22  2  0  0  0  0
 18 33  1  0  0  0  0
 19 23  2  0  0  0  0
 19 34  1  0  0  0  0
 20 24  2  0  0  0  0
 20 35  1  0  0  0  0
 21 25  2  0  0  0  0
 21 36  1  0  0  0  0
 22 24  1  0  0  0  0
 22 37  1  0  0  0  0
 23 25  1  0  0  0  0
 23 38  1  0  0  0  0
 24 39  1  0  0  0  0
 25 40  1  0  0  0  0
M  END
> <PUBCHEM_COMPOUND_CID>
1697

> <PUBCHEM_COMPOUND_CANONICALIZED>
1

> <PUBCHEM_CACTVS_COMPLEXITY>
453

> <PUBCHEM_CACTVS_HBOND_ACCEPTOR>
4

> <PUBCHEM_CACTVS_HBOND_DONOR>
3

> <PUBCHEM_CACTVS_ROTATABLE_BOND>
4

> <PUBCHEM_CACTVS_SUBSKEYS>
AAADccB7MAAAAAAAAAAAAAAAAAAAAWAAAAAwYMAAAAAAAFgBUAAAHgAQAAAADAiBmAAwwILAAACIAiVSUACCAAAlAgAIiAEAdMgIYHLAlZGUIQhglCDIyYcdiYCeiAAAQAAQACAQAACAACAAQAAAAAAAAA==

> <PUBCHEM_IUPAC_OPENEYE_NAME>
5,6-dianilinoisoindoline-1,3-dione

> <PUBCHEM_IUPAC_CAS_NAME>
5,6-dianilinoisoindole-1,3-dione

> <PUBCHEM_IUPAC_NAME_MARKUP>
5,6-dianilinoisoindole-1,3-dione

> <PUBCHEM_IUPAC_NAME>
5,6-dianilinoisoindole-1,3-dione

> <PUBCHEM_IUPAC_SYSTEMATIC_NAME>
5,6-bis(phenylazanyl)isoindole-1,3-dione

> <PUBCHEM_IUPAC_TRADITIONAL_NAME>
5,6-dianilinoisoindoline-1,3-quinone

> <PUBCHEM_IUPAC_INCHI>
InChI=1S/C20H15N3O2/c24-19-15-11-17(21-13-7-3-1-4-8-13)18(12-16(15)20(25)23-19)22-14-9-5-2-6-10-14/h1-12,21-22H,(H,23,24,25)

> <PUBCHEM_IUPAC_INCHIKEY>
AAALVYBICLMAMA-UHFFFAOYSA-N

> <PUBCHEM_XLOGP3_AA>
3.8

> <PUBCHEM_EXACT_MASS>
329.116426730

> <PUBCHEM_MOLECULAR_FORMULA>
C20H15N3O2

> <PUBCHEM_MOLECULAR_WEIGHT>
329.4

> <PUBCHEM_SMILES>
C1=CC=C(C=C1)NC2=C(C=C3C(=C2)C(=O)NC3=O)NC4=CC=CC=C4

> <PUBCHEM_OPENEYE_CAN_SMILES>
C1=CC=C(C=C1)NC2=C(C=C3C(=C2)C(=O)NC3=O)NC4=CC=CC=C4

> <PUBCHEM_OPENEYE_ISO_SMILES>
C1=CC=C(C=C1)NC2=C(C=C3C(=C2)C(=O)NC3=O)NC4=CC=CC=C4

> <PUBCHEM_CACTVS_TPSA>
70.2

> <PUBCHEM_MONOISOTOPIC_WEIGHT>
329.116426730

> <PUBCHEM_TOTAL_CHARGE>
0

> <PUBCHEM_HEAVY_ATOM_COUNT>
25

> <PUBCHEM_ATOM_DEF_STEREO_COUNT>
0

> <PUBCHEM_ATOM_UDEF_STEREO_COUNT>
0

> <PUBCHEM_BOND_DEF_STEREO_COUNT>
0

> <PUBCHEM_BOND_UDEF_STEREO_COUNT>
0

> <PUBCHEM_ISOTOPIC_ATOM_COUNT>
0

> <PUBCHEM_COMPONENT_COUNT>
1

> <PUBCHEM_CACTVS_TAUTO_COUNT>
-1

> <PUBCHEM_COORDINATE_TYPE>
1
5
255

> <PUBCHEM_BONDANNOTATIONS>
14  16  8
14  18  8
15  17  8
15  19  8
16  20  8
17  21  8
18  22  8
19  23  8
20  24  8
21  25  8
22  24  8
23  25  8
6  10  8
6  7  8
7  11  8
8  10  8
8  9  8
9  11  8

$$$$
