135441202
  -OEChem-03202506282D

 67 71  0     0  0  0  0  0  0999 V2000
   14.9400    3.8631    0.0000 Cl  0  0  0  0  0  0  0  0  0  0  0  0
    2.0000    0.0436    0.0000 F   0  0  0  0  0  0  0  0  0  0  0  0
   12.3241   -3.6884    0.0000 O   0  0  0  0  0  0  0  0  0  0  0  0
    5.4641    0.0436    0.0000 N   0  0  0  0  0  0  0  0  0  0  0  0
   10.7404   -1.1517    0.0000 N   0  0  0  0  0  0  0  0  0  0  0  0
   10.7404   -2.7611    0.0000 N   0  0  0  0  0  0  0  0  0  0  0  0
   12.3241   -0.2244    0.0000 N   0  0  0  0  0  0  0  0  0  0  0  0
   13.8241   -2.8224    0.0000 N   0  0  0  0  0  0  0  0  0  0  0  0
   12.8241    2.3737    0.0000 N   0  0  0  0  0  0  0  0  0  0  0  0
   12.4173    3.2873    0.0000 N   0  0  0  0  0  0  0  0  0  0  0  0
    7.1962   -0.9564    0.0000 C   0  0  0  0  0  0  0  0  0  0  0  0
    6.3301   -1.4564    0.0000 C   0  0  0  0  0  0  0  0  0  0  0  0
    7.1962    0.0436    0.0000 C   0  0  0  0  0  0  0  0  0  0  0  0
    5.4641   -0.9564    0.0000 C   0  0  0  0  0  0  0  0  0  0  0  0
    6.3301    0.5436    0.0000 C   0  0  0  0  0  0  0  0  0  0  0  0
    8.0622   -1.4564    0.0000 C   0  0  0  0  0  0  0  0  0  0  0  0
    4.5981    0.5436    0.0000 C   0  0  0  0  0  0  0  0  0  0  0  0
    8.9282   -0.9564    0.0000 C   0  0  0  0  0  0  0  0  0  0  0  0
    8.0622   -2.4564    0.0000 C   0  0  0  0  0  0  0  0  0  0  0  0
    3.7320    0.0436    0.0000 C   0  0  0  0  0  0  0  0  0  0  0  0
    9.7942   -1.4564    0.0000 C   0  0  0  0  0  0  0  0  0  0  0  0
    8.9282   -2.9564    0.0000 C   0  0  0  0  0  0  0  0  0  0  0  0
    9.7942   -2.4564    0.0000 C   0  0  0  0  0  0  0  0  0  0  0  0
    2.8660    0.5436    0.0000 C   0  0  0  0  0  0  0  0  0  0  0  0
   11.3241   -1.9564    0.0000 C   0  0  0  0  0  0  0  0  0  0  0  0
    8.9282   -3.9564    0.0000 C   0  0  0  0  0  0  0  0  0  0  0  0
   12.3241   -1.9564    0.0000 C   0  0  0  0  0  0  0  0  0  0  0  0
   12.8241   -1.0904    0.0000 C   0  0  0  0  0  0  0  0  0  0  0  0
   12.8241   -2.8224    0.0000 C   0  0  0  0  0  0  0  0  0  0  0  0
   13.8241   -1.0904    0.0000 C   0  0  0  0  0  0  0  0  0  0  0  0
   12.8241    0.6417    0.0000 C   0  0  0  0  0  0  0  0  0  0  0  0
   14.3241   -1.9564    0.0000 C   0  0  0  0  0  0  0  0  0  0  0  0
   12.3241    1.5077    0.0000 C   0  0  0  0  0  0  0  0  0  0  0  0
   13.8186    2.4782    0.0000 C   0  0  0  0  0  0  0  0  0  0  0  0
   14.0265    3.4564    0.0000 C   0  0  0  0  0  0  0  0  0  0  0  0
   13.1605    3.9564    0.0000 C   0  0  0  0  0  0  0  0  0  0  0  0
    7.7331   -0.6464    0.0000 H   0  0  0  0  0  0  0  0  0  0  0  0
    5.9316   -1.9314    0.0000 H   0  0  0  0  0  0  0  0  0  0  0  0
    6.7287   -1.9314    0.0000 H   0  0  0  0  0  0  0  0  0  0  0  0
    7.8067   -0.0641    0.0000 H   0  0  0  0  0  0  0  0  0  0  0  0
    7.4082    0.6262    0.0000 H   0  0  0  0  0  0  0  0  0  0  0  0
    4.8535   -0.8487    0.0000 H   0  0  0  0  0  0  0  0  0  0  0  0
    5.2520   -1.5390    0.0000 H   0  0  0  0  0  0  0  0  0  0  0  0
    6.7287    1.0186    0.0000 H   0  0  0  0  0  0  0  0  0  0  0  0
    5.9316    1.0186    0.0000 H   0  0  0  0  0  0  0  0  0  0  0  0
    4.9966    1.0186    0.0000 H   0  0  0  0  0  0  0  0  0  0  0  0
    4.1996    1.0186    0.0000 H   0  0  0  0  0  0  0  0  0  0  0  0
    8.9282   -0.3364    0.0000 H   0  0  0  0  0  0  0  0  0  0  0  0
    7.5252   -2.7664    0.0000 H   0  0  0  0  0  0  0  0  0  0  0  0
    3.3335   -0.4313    0.0000 H   0  0  0  0  0  0  0  0  0  0  0  0
    4.1306   -0.4313    0.0000 H   0  0  0  0  0  0  0  0  0  0  0  0
    3.2646    1.0186    0.0000 H   0  0  0  0  0  0  0  0  0  0  0  0
    2.4675    1.0186    0.0000 H   0  0  0  0  0  0  0  0  0  0  0  0
   10.9331   -0.5623    0.0000 H   0  0  0  0  0  0  0  0  0  0  0  0
    8.3082   -3.9564    0.0000 H   0  0  0  0  0  0  0  0  0  0  0  0
    8.9282   -4.5764    0.0000 H   0  0  0  0  0  0  0  0  0  0  0  0
    9.5482   -3.9564    0.0000 H   0  0  0  0  0  0  0  0  0  0  0  0
   11.7041   -0.2244    0.0000 H   0  0  0  0  0  0  0  0  0  0  0  0
   14.1341   -0.5534    0.0000 H   0  0  0  0  0  0  0  0  0  0  0  0
   13.2990    0.2431    0.0000 H   0  0  0  0  0  0  0  0  0  0  0  0
   13.2990    1.0402    0.0000 H   0  0  0  0  0  0  0  0  0  0  0  0
   14.1341   -3.3594    0.0000 H   0  0  0  0  0  0  0  0  0  0  0  0
   14.9441   -1.9564    0.0000 H   0  0  0  0  0  0  0  0  0  0  0  0
   11.8491    1.9062    0.0000 H   0  0  0  0  0  0  0  0  0  0  0  0
   11.8491    1.1092    0.0000 H   0  0  0  0  0  0  0  0  0  0  0  0
   14.2334    2.0175    0.0000 H   0  0  0  0  0  0  0  0  0  0  0  0
   13.0957    4.5730    0.0000 H   0  0  0  0  0  0  0  0  0  0  0  0
  1 35  1  0  0  0  0
  2 24  1  0  0  0  0
  3 29  2  0  0  0  0
  4 14  1  0  0  0  0
  4 15  1  0  0  0  0
  4 17  1  0  0  0  0
  5 21  1  0  0  0  0
  5 25  1  0  0  0  0
  5 54  1  0  0  0  0
  6 23  1  0  0  0  0
  6 25  2  0  0  0  0
  7 28  1  0  0  0  0
  7 31  1  0  0  0  0
  7 58  1  0  0  0  0
  8 29  1  0  0  0  0
  8 32  1  0  0  0  0
  8 62  1  0  0  0  0
  9 10  1  0  0  0  0
  9 33  1  0  0  0  0
  9 34  1  0  0  0  0
 10 36  2  0  0  0  0
 11 12  1  0  0  0  0
 11 13  1  0  0  0  0
 11 16  1  0  0  0  0
 11 37  1  0  0  0  0
 12 14  1  0  0  0  0
 12 38  1  0  0  0  0
 12 39  1  0  0  0  0
 13 15  1  0  0  0  0
 13 40  1  0  0  0  0
 13 41  1  0  0  0  0
 14 42  1  0  0  0  0
 14 43  1  0  0  0  0
 15 44  1  0  0  0  0
 15 45  1  0  0  0  0
 16 18  2  0  0  0  0
 16 19  1  0  0  0  0
 17 20  1  0  0  0  0
 17 46  1  0  0  0  0
 17 47  1  0  0  0  0
 18 21  1  0  0  0  0
 18 48  1  0  0  0  0
 19 22  2  0  0  0  0
 19 49  1  0  0  0  0
 20 24  1  0  0  0  0
 20 50  1  0  0  0  0
 20 51  1  0  0  0  0
 21 23  2  0  0  0  0
 22 23  1  0  0  0  0
 22 26  1  0  0  0  0
 24 52  1  0  0  0  0
 24 53  1  0  0  0  0
 25 27  1  0  0  0  0
 26 55  1  0  0  0  0
 26 56  1  0  0  0  0
 26 57  1  0  0  0  0
 27 28  2  0  0  0  0
 27 29  1  0  0  0  0
 28 30  1  0  0  0  0
 30 32  2  0  0  0  0
 30 59  1  0  0  0  0
 31 33  1  0  0  0  0
 31 60  1  0  0  0  0
 31 61  1  0  0  0  0
 32 63  1  0  0  0  0
 33 64  1  0  0  0  0
 33 65  1  0  0  0  0
 34 35  2  0  0  0  0
 34 66  1  0  0  0  0
 35 36  1  0  0  0  0
 36 67  1  0  0  0  0
M  END
> <PUBCHEM_COMPOUND_CID>
135441202

> <PUBCHEM_COMPOUND_CANONICALIZED>
1

> <PUBCHEM_CACTVS_COMPLEXITY>
833

> <PUBCHEM_CACTVS_HBOND_ACCEPTOR>
6

> <PUBCHEM_CACTVS_HBOND_DONOR>
3

> <PUBCHEM_CACTVS_ROTATABLE_BOND>
9

> <PUBCHEM_CACTVS_SUBSKEYS>
AAADceB7oQAEAAAAAAAAAAAAAAAAAWLAAAA8QIAAAAAAAFgB/AAAHwIYAAAADQrBnyQ/0LfJkACqAzd3dACShC2xk6AZ2aE4dNiIaKrA2dHUpAhomgLIyWcQgMAOiAACQAACACAQAASAAAQAQAAAAAAAAA==

> <PUBCHEM_IUPAC_OPENEYE_NAME>
4-[2-(4-chloropyrazol-1-yl)ethylamino]-3-[6-[1-(3-fluoropropyl)-4-piperidyl]-4-methyl-1H-benzimidazol-2-yl]-1H-pyridin-2-one

> <PUBCHEM_IUPAC_CAS_NAME>
4-[2-(4-chloro-1-pyrazolyl)ethylamino]-3-[6-[1-(3-fluoropropyl)-4-piperidinyl]-4-methyl-1H-benzimidazol-2-yl]-1H-pyridin-2-one

> <PUBCHEM_IUPAC_NAME_MARKUP>
4-[2-(4-chloropyrazol-1-yl)ethylamino]-3-[6-[1-(3-fluoropropyl)piperidin-4-yl]-4-methyl-1<I>H</I>-benzimidazol-2-yl]-1<I>H</I>-pyridin-2-one

> <PUBCHEM_IUPAC_NAME>
4-[2-(4-chloropyrazol-1-yl)ethylamino]-3-[6-[1-(3-fluoropropyl)piperidin-4-yl]-4-methyl-1H-benzimidazol-2-yl]-1H-pyridin-2-one

> <PUBCHEM_IUPAC_SYSTEMATIC_NAME>
4-[2-(4-chloranylpyrazol-1-yl)ethylamino]-3-[6-[1-(3-fluoranylpropyl)piperidin-4-yl]-4-methyl-1H-benzimidazol-2-yl]-1H-pyridin-2-one

> <PUBCHEM_IUPAC_TRADITIONAL_NAME>
4-[2-(4-chloropyrazol-1-yl)ethylamino]-3-[6-[1-(3-fluoropropyl)-4-piperidyl]-4-methyl-1H-benzimidazol-2-yl]-2-pyridone

> <PUBCHEM_IUPAC_INCHI>
InChI=1S/C26H31ClFN7O/c1-17-13-19(18-4-10-34(11-5-18)9-2-6-28)14-22-24(17)33-25(32-22)23-21(3-7-30-26(23)36)29-8-12-35-16-20(27)15-31-35/h3,7,13-16,18H,2,4-6,8-12H2,1H3,(H,32,33)(H2,29,30,36)

> <PUBCHEM_IUPAC_INCHIKEY>
VWELCPLMPPEKOL-UHFFFAOYSA-N

> <PUBCHEM_XLOGP3_AA>
3.4

> <PUBCHEM_EXACT_MASS>
511.2262645

> <PUBCHEM_MOLECULAR_FORMULA>
C26H31ClFN7O

> <PUBCHEM_MOLECULAR_WEIGHT>
512.0

> <PUBCHEM_SMILES>
CC1=CC(=CC2=C1N=C(N2)C3=C(C=CNC3=O)NCCN4C=C(C=N4)Cl)C5CCN(CC5)CCCF

> <PUBCHEM_OPENEYE_CAN_SMILES>
CC1=CC(=CC2=C1N=C(N2)C3=C(C=CNC3=O)NCCN4C=C(C=N4)Cl)C5CCN(CC5)CCCF

> <PUBCHEM_OPENEYE_ISO_SMILES>
CC1=CC(=CC2=C1N=C(N2)C3=C(C=CNC3=O)NCCN4C=C(C=N4)Cl)C5CCN(CC5)CCCF

> <PUBCHEM_CACTVS_TPSA>
90.9

> <PUBCHEM_MONOISOTOPIC_WEIGHT>
511.2262645

> <PUBCHEM_TOTAL_CHARGE>
0

> <PUBCHEM_HEAVY_ATOM_COUNT>
36

> <PUBCHEM_ATOM_DEF_STEREO_COUNT>
0

> <PUBCHEM_ATOM_UDEF_STEREO_COUNT>
0

> <PUBCHEM_BOND_DEF_STEREO_COUNT>
0

> <PUBCHEM_BOND_UDEF_STEREO_COUNT>
0

> <PUBCHEM_ISOTOPIC_ATOM_COUNT>
0

> <PUBCHEM_COMPONENT_COUNT>
1

> <PUBCHEM_CACTVS_TAUTO_COUNT>
-1

> <PUBCHEM_COORDINATE_TYPE>
1
5
255

> <PUBCHEM_BONDANNOTATIONS>
10  36  8
16  18  8
16  19  8
18  21  8
19  22  8
21  23  8
22  23  8
27  28  8
27  29  8
28  30  8
30  32  8
34  35  8
35  36  8
5  21  8
5  25  8
6  23  8
6  25  8
8  29  8
8  32  8
9  10  8
9  34  8

$$$$
