11496376
  -OEChem-03202505502D

 63 67  0     0  0  0  0  0  0999 V2000
   14.1961   -3.4418    0.0000 O   0  0  0  0  0  0  0  0  0  0  0  0
   12.4602   -2.4485    0.0000 N   0  0  0  0  0  0  0  0  0  0  0  0
    9.8602   -1.9585    0.0000 N   0  0  0  0  0  0  0  0  0  0  0  0
    8.9962   -3.5035    0.0000 N   0  0  0  0  0  0  0  0  0  0  0  0
    6.3301   -0.9827    0.0000 N   0  0  0  0  0  0  0  0  0  0  0  0
    6.3301   -3.9827    0.0000 N   0  0  0  0  0  0  0  0  0  0  0  0
    3.7320   -1.4827    0.0000 N   0  0  0  0  0  0  0  0  0  0  0  0
   13.3243   -1.9452    0.0000 C   0  0  0  0  0  0  0  0  0  0  0  0
   12.4641   -3.4485    0.0000 C   0  0  0  0  0  0  0  0  0  0  0  0
   11.5923   -1.9518    0.0000 C   0  0  0  0  0  0  0  0  0  0  0  0
   14.1923   -2.4418    0.0000 C   0  0  0  0  0  0  0  0  0  0  0  0
   13.3320   -3.9452    0.0000 C   0  0  0  0  0  0  0  0  0  0  0  0
   10.7282   -2.4552    0.0000 C   0  0  0  0  0  0  0  0  0  0  0  0
    8.9962   -2.4618    0.0000 C   0  0  0  0  0  0  0  0  0  0  0  0
    7.1962   -2.4827    0.0000 C   0  0  0  0  0  0  0  0  0  0  0  0
    8.0901   -1.9480    0.0000 C   0  0  0  0  0  0  0  0  0  0  0  0
    6.3301   -1.9827    0.0000 C   0  0  0  0  0  0  0  0  0  0  0  0
    7.1962   -3.4827    0.0000 C   0  0  0  0  0  0  0  0  0  0  0  0
    5.4641   -0.4827    0.0000 C   0  0  0  0  0  0  0  0  0  0  0  0
    8.0901   -4.0173    0.0000 C   0  0  0  0  0  0  0  0  0  0  0  0
    3.7320    0.5173    0.0000 C   0  0  0  0  0  0  0  0  0  0  0  0
    5.4641   -2.4827    0.0000 C   0  0  0  0  0  0  0  0  0  0  0  0
    2.8660    1.0173    0.0000 C   0  0  0  0  0  0  0  0  0  0  0  0
    4.5981   -0.9827    0.0000 C   0  0  0  0  0  0  0  0  0  0  0  0
    5.4641    0.5173    0.0000 C   0  0  0  0  0  0  0  0  0  0  0  0
    3.7320   -0.4827    0.0000 C   0  0  0  0  0  0  0  0  0  0  0  0
    4.5981    1.0173    0.0000 C   0  0  0  0  0  0  0  0  0  0  0  0
    5.4641   -3.4827    0.0000 C   0  0  0  0  0  0  0  0  0  0  0  0
    2.8660    2.0173    0.0000 C   0  0  0  0  0  0  0  0  0  0  0  0
    2.0000    2.5173    0.0000 C   0  0  0  0  0  0  0  0  0  0  0  0
    3.7320    2.5173    0.0000 C   0  0  0  0  0  0  0  0  0  0  0  0
    4.5981   -1.9827    0.0000 C   0  0  0  0  0  0  0  0  0  0  0  0
    2.0000    3.5173    0.0000 C   0  0  0  0  0  0  0  0  0  0  0  0
    3.7320    3.5173    0.0000 C   0  0  0  0  0  0  0  0  0  0  0  0
    2.8660    4.0173    0.0000 C   0  0  0  0  0  0  0  0  0  0  0  0
   13.7210   -1.4687    0.0000 H   0  0  0  0  0  0  0  0  0  0  0  0
   12.9240   -1.4718    0.0000 H   0  0  0  0  0  0  0  0  0  0  0  0
   11.8531   -3.3432    0.0000 H   0  0  0  0  0  0  0  0  0  0  0  0
   12.2543   -4.0319    0.0000 H   0  0  0  0  0  0  0  0  0  0  0  0
   11.9890   -1.4754    0.0000 H   0  0  0  0  0  0  0  0  0  0  0  0
   11.1919   -1.4784    0.0000 H   0  0  0  0  0  0  0  0  0  0  0  0
   14.8033   -2.5471    0.0000 H   0  0  0  0  0  0  0  0  0  0  0  0
   14.4021   -1.8584    0.0000 H   0  0  0  0  0  0  0  0  0  0  0  0
   12.9353   -4.4216    0.0000 H   0  0  0  0  0  0  0  0  0  0  0  0
   13.7324   -4.4186    0.0000 H   0  0  0  0  0  0  0  0  0  0  0  0
   10.3315   -2.9317    0.0000 H   0  0  0  0  0  0  0  0  0  0  0  0
   11.1286   -2.9286    0.0000 H   0  0  0  0  0  0  0  0  0  0  0  0
    9.8579   -1.3385    0.0000 H   0  0  0  0  0  0  0  0  0  0  0  0
    8.0829   -1.3280    0.0000 H   0  0  0  0  0  0  0  0  0  0  0  0
    6.8671   -0.6727    0.0000 H   0  0  0  0  0  0  0  0  0  0  0  0
    8.0829   -4.6373    0.0000 H   0  0  0  0  0  0  0  0  0  0  0  0
    2.2554    1.1250    0.0000 H   0  0  0  0  0  0  0  0  0  0  0  0
    2.6540    0.4347    0.0000 H   0  0  0  0  0  0  0  0  0  0  0  0
    4.5981   -1.6027    0.0000 H   0  0  0  0  0  0  0  0  0  0  0  0
    6.0010    0.8273    0.0000 H   0  0  0  0  0  0  0  0  0  0  0  0
    3.1951   -0.7927    0.0000 H   0  0  0  0  0  0  0  0  0  0  0  0
    4.5981    1.6373    0.0000 H   0  0  0  0  0  0  0  0  0  0  0  0
    4.9272   -3.7927    0.0000 H   0  0  0  0  0  0  0  0  0  0  0  0
    1.4631    2.2073    0.0000 H   0  0  0  0  0  0  0  0  0  0  0  0
    4.2690    2.2073    0.0000 H   0  0  0  0  0  0  0  0  0  0  0  0
    1.4631    3.8273    0.0000 H   0  0  0  0  0  0  0  0  0  0  0  0
    4.2690    3.8273    0.0000 H   0  0  0  0  0  0  0  0  0  0  0  0
    2.8660    4.6373    0.0000 H   0  0  0  0  0  0  0  0  0  0  0  0
  1 11  1  0  0  0  0
  1 12  1  0  0  0  0
  2  8  1  0  0  0  0
  2  9  1  0  0  0  0
  2 10  1  0  0  0  0
  3 13  1  0  0  0  0
  3 14  1  0  0  0  0
  3 48  1  0  0  0  0
  4 14  2  0  0  0  0
  4 20  1  0  0  0  0
  5 17  1  0  0  0  0
  5 19  1  0  0  0  0
  5 50  1  0  0  0  0
  6 18  1  0  0  0  0
  6 28  2  0  0  0  0
  7 32  3  0  0  0  0
  8 11  1  0  0  0  0
  8 36  1  0  0  0  0
  8 37  1  0  0  0  0
  9 12  1  0  0  0  0
  9 38  1  0  0  0  0
  9 39  1  0  0  0  0
 10 13  1  0  0  0  0
 10 40  1  0  0  0  0
 10 41  1  0  0  0  0
 11 42  1  0  0  0  0
 11 43  1  0  0  0  0
 12 44  1  0  0  0  0
 12 45  1  0  0  0  0
 13 46  1  0  0  0  0
 13 47  1  0  0  0  0
 14 16  1  0  0  0  0
 15 16  2  0  0  0  0
 15 17  1  0  0  0  0
 15 18  1  0  0  0  0
 16 49  1  0  0  0  0
 17 22  2  0  0  0  0
 18 20  2  0  0  0  0
 19 24  2  0  0  0  0
 19 25  1  0  0  0  0
 20 51  1  0  0  0  0
 21 23  1  0  0  0  0
 21 26  2  0  0  0  0
 21 27  1  0  0  0  0
 22 28  1  0  0  0  0
 22 32  1  0  0  0  0
 23 29  1  0  0  0  0
 23 52  1  0  0  0  0
 23 53  1  0  0  0  0
 24 26  1  0  0  0  0
 24 54  1  0  0  0  0
 25 27  2  0  0  0  0
 25 55  1  0  0  0  0
 26 56  1  0  0  0  0
 27 57  1  0  0  0  0
 28 58  1  0  0  0  0
 29 30  2  0  0  0  0
 29 31  1  0  0  0  0
 30 33  1  0  0  0  0
 30 59  1  0  0  0  0
 31 34  2  0  0  0  0
 31 60  1  0  0  0  0
 33 35  2  0  0  0  0
 33 61  1  0  0  0  0
 34 35  1  0  0  0  0
 34 62  1  0  0  0  0
 35 63  1  0  0  0  0
M  END
> <PUBCHEM_COMPOUND_CID>
11496376

> <PUBCHEM_COMPOUND_CANONICALIZED>
1

> <PUBCHEM_CACTVS_COMPLEXITY>
676

> <PUBCHEM_CACTVS_HBOND_ACCEPTOR>
7

> <PUBCHEM_CACTVS_HBOND_DONOR>
2

> <PUBCHEM_CACTVS_ROTATABLE_BOND>
8

> <PUBCHEM_CACTVS_SUBSKEYS>
AAADceB7oAAAAAAAAAAAAAAAAAAAAAAAAAA8eLECAAAAAACx/AAAHgAQAAAADAjhngY98PPIFACwBzZnZACigC0xEiAJ2KA4dJiK4OLA2dGXJAhokALYyC8QgMAOCAAAAAAAAAAQAAAAAAAAAAAAAAAAAA==

> <PUBCHEM_IUPAC_OPENEYE_NAME>
4-(4-benzylanilino)-6-(2-morpholinoethylamino)-1,7-naphthyridine-3-carbonitrile

> <PUBCHEM_IUPAC_CAS_NAME>
6-[2-(4-morpholinyl)ethylamino]-4-[4-(phenylmethyl)anilino]-1,7-naphthyridine-3-carbonitrile

> <PUBCHEM_IUPAC_NAME_MARKUP>
4-(4-benzylanilino)-6-(2-morpholin-4-ylethylamino)-1,7-naphthyridine-3-carbonitrile

> <PUBCHEM_IUPAC_NAME>
4-(4-benzylanilino)-6-(2-morpholin-4-ylethylamino)-1,7-naphthyridine-3-carbonitrile

> <PUBCHEM_IUPAC_SYSTEMATIC_NAME>
6-(2-morpholin-4-ylethylamino)-4-[[4-(phenylmethyl)phenyl]amino]-1,7-naphthyridine-3-carbonitrile

> <PUBCHEM_IUPAC_TRADITIONAL_NAME>
4-(4-benzylanilino)-6-(2-morpholinoethylamino)-1,7-naphthyridine-3-carbonitrile

> <PUBCHEM_IUPAC_INCHI>
InChI=1S/C28H28N6O/c29-18-23-19-31-26-20-32-27(30-10-11-34-12-14-35-15-13-34)17-25(26)28(23)33-24-8-6-22(7-9-24)16-21-4-2-1-3-5-21/h1-9,17,19-20H,10-16H2,(H,30,32)(H,31,33)

> <PUBCHEM_IUPAC_INCHIKEY>
PXRDIWAVNLQFBI-UHFFFAOYSA-N

> <PUBCHEM_XLOGP3_AA>
4.8

> <PUBCHEM_EXACT_MASS>
464.23245954

> <PUBCHEM_MOLECULAR_FORMULA>
C28H28N6O

> <PUBCHEM_MOLECULAR_WEIGHT>
464.6

> <PUBCHEM_SMILES>
C1COCCN1CCNC2=NC=C3C(=C2)C(=C(C=N3)C#N)NC4=CC=C(C=C4)CC5=CC=CC=C5

> <PUBCHEM_OPENEYE_CAN_SMILES>
C1COCCN1CCNC2=NC=C3C(=C2)C(=C(C=N3)C#N)NC4=CC=C(C=C4)CC5=CC=CC=C5

> <PUBCHEM_OPENEYE_ISO_SMILES>
C1COCCN1CCNC2=NC=C3C(=C2)C(=C(C=N3)C#N)NC4=CC=C(C=C4)CC5=CC=CC=C5

> <PUBCHEM_CACTVS_TPSA>
86.1

> <PUBCHEM_MONOISOTOPIC_WEIGHT>
464.23245954

> <PUBCHEM_TOTAL_CHARGE>
0

> <PUBCHEM_HEAVY_ATOM_COUNT>
35

> <PUBCHEM_ATOM_DEF_STEREO_COUNT>
0

> <PUBCHEM_ATOM_UDEF_STEREO_COUNT>
0

> <PUBCHEM_BOND_DEF_STEREO_COUNT>
0

> <PUBCHEM_BOND_UDEF_STEREO_COUNT>
0

> <PUBCHEM_ISOTOPIC_ATOM_COUNT>
0

> <PUBCHEM_COMPONENT_COUNT>
1

> <PUBCHEM_CACTVS_TAUTO_COUNT>
-1

> <PUBCHEM_COORDINATE_TYPE>
1
5
255

> <PUBCHEM_BONDANNOTATIONS>
14  16  8
15  16  8
15  17  8
15  18  8
17  22  8
18  20  8
19  24  8
19  25  8
21  26  8
21  27  8
22  28  8
24  26  8
25  27  8
29  30  8
29  31  8
30  33  8
31  34  8
33  35  8
34  35  8
4  14  8
4  20  8
6  18  8
6  28  8

$$$$
