49830403
  -OEChem-03202503022D

 48 52  0     1  0  0  0  0  0999 V2000
    3.2300   -2.2894    0.0000 F   0  0  0  0  0  0  0  0  0  0  0  0
    9.7151   -3.0942    0.0000 O   0  0  0  0  0  0  0  0  0  0  0  0
    8.7688   -1.7894    0.0000 N   0  0  0  0  0  0  0  0  0  0  0  0
    5.2435    0.8375    0.0000 N   0  0  0  0  0  0  0  0  0  0  0  0
    7.8178   -3.0984    0.0000 N   0  0  0  0  0  0  0  0  0  0  0  0
    6.5306   -0.3214    0.0000 N   0  0  0  0  0  0  0  0  0  0  0  0
    6.8907    1.3728    0.0000 N   0  0  0  0  0  0  0  0  0  0  0  0
    7.8178   -1.4804    0.0000 C   0  0  0  0  0  0  0  0  0  0  0  0
    7.2300   -2.2894    0.0000 C   0  0  0  0  0  0  0  0  0  0  0  0
    4.9344    1.7886    0.0000 C   0  0  3  0  0  0  0  0  0  0  0  0
    7.5088   -0.5294    0.0000 C   0  0  0  0  0  0  0  0  0  0  0  0
    8.7688   -2.7894    0.0000 C   0  0  0  0  0  0  0  0  0  0  0  0
    3.9563    1.9965    0.0000 C   0  0  0  0  0  0  0  0  0  0  0  0
    6.2300   -2.2894    0.0000 C   0  0  0  0  0  0  0  0  0  0  0  0
    9.7151   -1.4847    0.0000 C   0  0  0  0  0  0  0  0  0  0  0  0
    6.2216    0.6296    0.0000 C   0  0  0  0  0  0  0  0  0  0  0  0
    5.6036    2.5317    0.0000 C   0  0  0  0  0  0  0  0  0  0  0  0
    8.1779    0.2138    0.0000 C   0  0  0  0  0  0  0  0  0  0  0  0
   10.2987   -2.2894    0.0000 C   0  0  0  0  0  0  0  0  0  0  0  0
    3.2872    1.2533    0.0000 C   0  0  0  0  0  0  0  0  0  0  0  0
    3.6473    2.9476    0.0000 C   0  0  0  0  0  0  0  0  0  0  0  0
    5.7300   -3.1555    0.0000 C   0  0  0  0  0  0  0  0  0  0  0  0
    5.7300   -1.4234    0.0000 C   0  0  0  0  0  0  0  0  0  0  0  0
    7.8689    1.1648    0.0000 C   0  0  0  0  0  0  0  0  0  0  0  0
    2.3090    1.4613    0.0000 C   0  0  0  0  0  0  0  0  0  0  0  0
    2.6691    3.1555    0.0000 C   0  0  0  0  0  0  0  0  0  0  0  0
    4.7300   -3.1555    0.0000 C   0  0  0  0  0  0  0  0  0  0  0  0
    4.7300   -1.4234    0.0000 C   0  0  0  0  0  0  0  0  0  0  0  0
    2.0000    2.4123    0.0000 C   0  0  0  0  0  0  0  0  0  0  0  0
    4.2300   -2.2894    0.0000 C   0  0  0  0  0  0  0  0  0  0  0  0
    5.5409    1.6597    0.0000 H   0  0  0  0  0  0  0  0  0  0  0  0
    4.8286    0.3768    0.0000 H   0  0  0  0  0  0  0  0  0  0  0  0
    9.9077   -0.8954    0.0000 H   0  0  0  0  0  0  0  0  0  0  0  0
    6.0643    2.1169    0.0000 H   0  0  0  0  0  0  0  0  0  0  0  0
    6.0184    2.9925    0.0000 H   0  0  0  0  0  0  0  0  0  0  0  0
    5.1428    2.9466    0.0000 H   0  0  0  0  0  0  0  0  0  0  0  0
    8.7844    0.0849    0.0000 H   0  0  0  0  0  0  0  0  0  0  0  0
   10.9187   -2.2894    0.0000 H   0  0  0  0  0  0  0  0  0  0  0  0
    3.4788    0.6637    0.0000 H   0  0  0  0  0  0  0  0  0  0  0  0
    4.0621    3.4083    0.0000 H   0  0  0  0  0  0  0  0  0  0  0  0
    6.0400   -3.6924    0.0000 H   0  0  0  0  0  0  0  0  0  0  0  0
    6.0400   -0.8865    0.0000 H   0  0  0  0  0  0  0  0  0  0  0  0
    8.2838    1.6256    0.0000 H   0  0  0  0  0  0  0  0  0  0  0  0
    1.8942    1.0005    0.0000 H   0  0  0  0  0  0  0  0  0  0  0  0
    2.4775    3.7451    0.0000 H   0  0  0  0  0  0  0  0  0  0  0  0
    4.4200   -3.6924    0.0000 H   0  0  0  0  0  0  0  0  0  0  0  0
    4.4200   -0.8865    0.0000 H   0  0  0  0  0  0  0  0  0  0  0  0
    1.3936    2.5412    0.0000 H   0  0  0  0  0  0  0  0  0  0  0  0
  1 30  1  0  0  0  0
  2 12  1  0  0  0  0
  2 19  1  0  0  0  0
  3  8  1  0  0  0  0
  3 12  1  0  0  0  0
  3 15  1  0  0  0  0
  4 10  1  0  0  0  0
  4 16  1  0  0  0  0
  4 32  1  0  0  0  0
  5  9  1  0  0  0  0
  5 12  2  0  0  0  0
  6 11  2  0  0  0  0
  6 16  1  0  0  0  0
  7 16  2  0  0  0  0
  7 24  1  0  0  0  0
  8  9  2  0  0  0  0
  8 11  1  0  0  0  0
  9 14  1  0  0  0  0
 10 13  1  0  0  0  0
 10 17  1  0  0  0  0
 10 31  1  0  0  0  0
 11 18  1  0  0  0  0
 13 20  2  0  0  0  0
 13 21  1  0  0  0  0
 14 22  2  0  0  0  0
 14 23  1  0  0  0  0
 15 19  2  0  0  0  0
 15 33  1  0  0  0  0
 17 34  1  0  0  0  0
 17 35  1  0  0  0  0
 17 36  1  0  0  0  0
 18 24  2  0  0  0  0
 18 37  1  0  0  0  0
 19 38  1  0  0  0  0
 20 25  1  0  0  0  0
 20 39  1  0  0  0  0
 21 26  2  0  0  0  0
 21 40  1  0  0  0  0
 22 27  1  0  0  0  0
 22 41  1  0  0  0  0
 23 28  2  0  0  0  0
 23 42  1  0  0  0  0
 24 43  1  0  0  0  0
 25 29  2  0  0  0  0
 25 44  1  0  0  0  0
 26 29  1  0  0  0  0
 26 45  1  0  0  0  0
 27 30  2  0  0  0  0
 27 46  1  0  0  0  0
 28 30  1  0  0  0  0
 28 47  1  0  0  0  0
 29 48  1  0  0  0  0
M  END
> <PUBCHEM_COMPOUND_CID>
49830403

> <PUBCHEM_COMPOUND_CANONICALIZED>
1

> <PUBCHEM_CACTVS_COMPLEXITY>
554

> <PUBCHEM_CACTVS_HBOND_ACCEPTOR>
6

> <PUBCHEM_CACTVS_HBOND_DONOR>
1

> <PUBCHEM_CACTVS_ROTATABLE_BOND>
5

> <PUBCHEM_CACTVS_SUBSKEYS>
AAADceB7oQAAAAAAAAAAAAAAAAAAAWLAAAA8YIAAAAAWAAAB/AAAHwAQAAAADCjhng4/lJfMHECoAzx39ASCiC07UqAJ2KC7dJiOaOLA2fGdJAholgLYyCcQgMAOAAAAAAAAAAAAAAAAAAAAAAAAAAAAAA==

> <PUBCHEM_IUPAC_OPENEYE_NAME>
4-[6-(4-fluorophenyl)imidazo[2,1-b]oxazol-5-yl]-N-(1-phenylethyl)pyrimidin-2-amine

> <PUBCHEM_IUPAC_CAS_NAME>
4-[6-(4-fluorophenyl)-5-imidazo[2,1-b]oxazolyl]-N-(1-phenylethyl)-2-pyrimidinamine

> <PUBCHEM_IUPAC_NAME_MARKUP>
4-[6-(4-fluorophenyl)imidazo[2,1-b][1,3]oxazol-5-yl]-<I>N</I>-(1-phenylethyl)pyrimidin-2-amine

> <PUBCHEM_IUPAC_NAME>
4-[6-(4-fluorophenyl)imidazo[2,1-b][1,3]oxazol-5-yl]-N-(1-phenylethyl)pyrimidin-2-amine

> <PUBCHEM_IUPAC_SYSTEMATIC_NAME>
4-[6-(4-fluorophenyl)imidazo[2,1-b][1,3]oxazol-5-yl]-N-(1-phenylethyl)pyrimidin-2-amine

> <PUBCHEM_IUPAC_TRADITIONAL_NAME>
[4-[6-(4-fluorophenyl)imidazo[2,1-b]oxazol-5-yl]pyrimidin-2-yl]-(1-phenylethyl)amine

> <PUBCHEM_IUPAC_INCHI>
InChI=1S/C23H18FN5O/c1-15(16-5-3-2-4-6-16)26-22-25-12-11-19(27-22)21-20(17-7-9-18(24)10-8-17)28-23-29(21)13-14-30-23/h2-15H,1H3,(H,25,26,27)

> <PUBCHEM_IUPAC_INCHIKEY>
XBAIEEJJCJHBDL-UHFFFAOYSA-N

> <PUBCHEM_XLOGP3_AA>
5.2

> <PUBCHEM_EXACT_MASS>
399.14953838

> <PUBCHEM_MOLECULAR_FORMULA>
C23H18FN5O

> <PUBCHEM_MOLECULAR_WEIGHT>
399.4

> <PUBCHEM_SMILES>
CC(C1=CC=CC=C1)NC2=NC=CC(=N2)C3=C(N=C4N3C=CO4)C5=CC=C(C=C5)F

> <PUBCHEM_OPENEYE_CAN_SMILES>
CC(C1=CC=CC=C1)NC2=NC=CC(=N2)C3=C(N=C4N3C=CO4)C5=CC=C(C=C5)F

> <PUBCHEM_OPENEYE_ISO_SMILES>
CC(C1=CC=CC=C1)NC2=NC=CC(=N2)C3=C(N=C4N3C=CO4)C5=CC=C(C=C5)F

> <PUBCHEM_CACTVS_TPSA>
68.3

> <PUBCHEM_MONOISOTOPIC_WEIGHT>
399.14953838

> <PUBCHEM_TOTAL_CHARGE>
0

> <PUBCHEM_HEAVY_ATOM_COUNT>
30

> <PUBCHEM_ATOM_DEF_STEREO_COUNT>
0

> <PUBCHEM_ATOM_UDEF_STEREO_COUNT>
1

> <PUBCHEM_BOND_DEF_STEREO_COUNT>
0

> <PUBCHEM_BOND_UDEF_STEREO_COUNT>
0

> <PUBCHEM_ISOTOPIC_ATOM_COUNT>
0

> <PUBCHEM_COMPONENT_COUNT>
1

> <PUBCHEM_CACTVS_TAUTO_COUNT>
-1

> <PUBCHEM_COORDINATE_TYPE>
1
5
255

> <PUBCHEM_BONDANNOTATIONS>
10  17  3
11  18  8
13  20  8
13  21  8
14  22  8
14  23  8
15  19  8
18  24  8
2  12  8
2  19  8
20  25  8
21  26  8
22  27  8
23  28  8
25  29  8
26  29  8
27  30  8
28  30  8
3  12  8
3  15  8
3  8  8
5  12  8
5  9  8
6  11  8
6  16  8
7  16  8
7  24  8
8  9  8

$$$$
