49830577
  -OEChem-03202502382D

 74 79  0     0  0  0  0  0  0999 V2000
   18.1933   -2.3283    0.0000 O   0  0  0  0  0  0  0  0  0  0  0  0
   13.7793    1.7358    0.0000 O   0  0  0  0  0  0  0  0  0  0  0  0
    7.3179    3.8793    0.0000 O   0  0  0  0  0  0  0  0  0  0  0  0
    2.2263    0.0169    0.0000 O   0  0  0  0  0  0  0  0  0  0  0  0
   16.7219   -0.9736    0.0000 N   0  0  0  0  0  0  0  0  0  0  0  0
    8.2517    0.7877    0.0000 N   0  0  0  0  0  0  0  0  0  0  0  0
    8.7518    2.9783    0.0000 N   0  0  0  0  0  0  0  0  0  0  0  0
    3.1314   -3.8793    0.0000 N   0  0  0  0  0  0  0  0  0  0  0  0
   17.6764   -0.6752    0.0000 C   0  0  0  0  0  0  0  0  0  0  0  0
   16.5032   -1.9494    0.0000 C   0  0  0  0  0  0  0  0  0  0  0  0
   18.4120   -1.3526    0.0000 C   0  0  0  0  0  0  0  0  0  0  0  0
   17.2388   -2.6268    0.0000 C   0  0  0  0  0  0  0  0  0  0  0  0
   15.9863   -0.2963    0.0000 C   0  0  0  0  0  0  0  0  0  0  0  0
    9.1527    1.2216    0.0000 C   0  0  0  0  0  0  0  0  0  0  0  0
    9.3752    2.1965    0.0000 C   0  0  0  0  0  0  0  0  0  0  0  0
   11.1348    1.8162    0.0000 C   0  0  0  0  0  0  0  0  0  0  0  0
    7.3508    1.2216    0.0000 C   0  0  0  0  0  0  0  0  0  0  0  0
   12.0892    2.1147    0.0000 C   0  0  0  0  0  0  0  0  0  0  0  0
   16.2050    0.6795    0.0000 C   0  0  0  0  0  0  0  0  0  0  0  0
   15.0318   -0.5947    0.0000 C   0  0  0  0  0  0  0  0  0  0  0  0
    7.1283    2.1965    0.0000 C   0  0  0  0  0  0  0  0  0  0  0  0
   10.3657    2.5188    0.0000 C   0  0  0  0  0  0  0  0  0  0  0  0
   12.8248    1.4373    0.0000 C   0  0  0  0  0  0  0  0  0  0  0  0
    5.6005    0.8008    0.0000 C   0  0  0  0  0  0  0  0  0  0  0  0
   14.5149    1.0584    0.0000 C   0  0  0  0  0  0  0  0  0  0  0  0
    9.9053    0.5014    0.0000 C   0  0  0  0  0  0  0  0  0  0  0  0
    6.5982    0.5014    0.0000 C   0  0  0  0  0  0  0  0  0  0  0  0
   10.9030    0.8007    0.0000 C   0  0  0  0  0  0  0  0  0  0  0  0
   15.4694    1.3568    0.0000 C   0  0  0  0  0  0  0  0  0  0  0  0
   14.2962    0.0826    0.0000 C   0  0  0  0  0  0  0  0  0  0  0  0
    7.7518    2.9783    0.0000 C   0  0  0  0  0  0  0  0  0  0  0  0
    6.1378    2.5189    0.0000 C   0  0  0  0  0  0  0  0  0  0  0  0
    4.8701    0.1178    0.0000 C   0  0  0  0  0  0  0  0  0  0  0  0
    5.3688    1.8163    0.0000 C   0  0  0  0  0  0  0  0  0  0  0  0
    3.9134    0.4089    0.0000 C   0  0  0  0  0  0  0  0  0  0  0  0
    5.0964   -0.8563    0.0000 C   0  0  0  0  0  0  0  0  0  0  0  0
    3.1830   -0.2741    0.0000 C   0  0  0  0  0  0  0  0  0  0  0  0
    3.4092   -1.2482    0.0000 C   0  0  0  0  0  0  0  0  0  0  0  0
    4.3659   -1.5393    0.0000 C   0  0  0  0  0  0  0  0  0  0  0  0
    2.6788   -1.9312    0.0000 C   0  0  0  0  0  0  0  0  0  0  0  0
    2.0000    0.9910    0.0000 C   0  0  0  0  0  0  0  0  0  0  0  0
    2.9051   -2.9052    0.0000 C   0  0  0  0  0  0  0  0  0  0  0  0
   18.1691   -0.2990    0.0000 H   0  0  0  0  0  0  0  0  0  0  0  0
   17.3914   -0.1246    0.0000 H   0  0  0  0  0  0  0  0  0  0  0  0
   15.9309   -1.7108    0.0000 H   0  0  0  0  0  0  0  0  0  0  0  0
   16.1688   -2.4715    0.0000 H   0  0  0  0  0  0  0  0  0  0  0  0
   18.9843   -1.5912    0.0000 H   0  0  0  0  0  0  0  0  0  0  0  0
   18.7464   -0.8305    0.0000 H   0  0  0  0  0  0  0  0  0  0  0  0
   16.7460   -3.0030    0.0000 H   0  0  0  0  0  0  0  0  0  0  0  0
   17.5238   -3.1774    0.0000 H   0  0  0  0  0  0  0  0  0  0  0  0
   12.5820    2.4909    0.0000 H   0  0  0  0  0  0  0  0  0  0  0  0
   11.8042    2.6653    0.0000 H   0  0  0  0  0  0  0  0  0  0  0  0
   16.7968    0.8645    0.0000 H   0  0  0  0  0  0  0  0  0  0  0  0
   14.8962   -1.1997    0.0000 H   0  0  0  0  0  0  0  0  0  0  0  0
   10.4967    3.1248    0.0000 H   0  0  0  0  0  0  0  0  0  0  0  0
    8.2517    0.1677    0.0000 H   0  0  0  0  0  0  0  0  0  0  0  0
   12.3321    1.0611    0.0000 H   0  0  0  0  0  0  0  0  0  0  0  0
   13.1098    0.8867    0.0000 H   0  0  0  0  0  0  0  0  0  0  0  0
    9.7603   -0.1014    0.0000 H   0  0  0  0  0  0  0  0  0  0  0  0
    6.7432   -0.1014    0.0000 H   0  0  0  0  0  0  0  0  0  0  0  0
   11.3558    0.3773    0.0000 H   0  0  0  0  0  0  0  0  0  0  0  0
    9.0208    3.5369    0.0000 H   0  0  0  0  0  0  0  0  0  0  0  0
   15.6050    1.9618    0.0000 H   0  0  0  0  0  0  0  0  0  0  0  0
   13.7044   -0.1024    0.0000 H   0  0  0  0  0  0  0  0  0  0  0  0
    6.0068    3.1249    0.0000 H   0  0  0  0  0  0  0  0  0  0  0  0
    4.7770    2.0013    0.0000 H   0  0  0  0  0  0  0  0  0  0  0  0
    3.7731    1.0128    0.0000 H   0  0  0  0  0  0  0  0  0  0  0  0
    5.6895   -1.0368    0.0000 H   0  0  0  0  0  0  0  0  0  0  0  0
    4.5062   -2.1432    0.0000 H   0  0  0  0  0  0  0  0  0  0  0  0
    2.3404   -1.4117    0.0000 H   0  0  0  0  0  0  0  0  0  0  0  0
    2.1084   -2.1742    0.0000 H   0  0  0  0  0  0  0  0  0  0  0  0
    2.6039    1.1313    0.0000 H   0  0  0  0  0  0  0  0  0  0  0  0
    1.8597    1.5949    0.0000 H   0  0  0  0  0  0  0  0  0  0  0  0
    1.3961    0.8507    0.0000 H   0  0  0  0  0  0  0  0  0  0  0  0
  1 11  1  0  0  0  0
  1 12  1  0  0  0  0
  2 23  1  0  0  0  0
  2 25  1  0  0  0  0
  3 31  2  0  0  0  0
  4 37  1  0  0  0  0
  4 41  1  0  0  0  0
  5  9  1  0  0  0  0
  5 10  1  0  0  0  0
  5 13  1  0  0  0  0
  6 14  1  0  0  0  0
  6 17  1  0  0  0  0
  6 56  1  0  0  0  0
  7 15  1  0  0  0  0
  7 31  1  0  0  0  0
  7 62  1  0  0  0  0
  8 42  3  0  0  0  0
  9 11  1  0  0  0  0
  9 43  1  0  0  0  0
  9 44  1  0  0  0  0
 10 12  1  0  0  0  0
 10 45  1  0  0  0  0
 10 46  1  0  0  0  0
 11 47  1  0  0  0  0
 11 48  1  0  0  0  0
 12 49  1  0  0  0  0
 12 50  1  0  0  0  0
 13 19  2  0  0  0  0
 13 20  1  0  0  0  0
 14 15  2  0  0  0  0
 14 26  1  0  0  0  0
 15 22  1  0  0  0  0
 16 18  1  0  0  0  0
 16 22  2  0  0  0  0
 16 28  1  0  0  0  0
 17 21  2  0  0  0  0
 17 27  1  0  0  0  0
 18 23  1  0  0  0  0
 18 51  1  0  0  0  0
 18 52  1  0  0  0  0
 19 29  1  0  0  0  0
 19 53  1  0  0  0  0
 20 30  2  0  0  0  0
 20 54  1  0  0  0  0
 21 31  1  0  0  0  0
 21 32  1  0  0  0  0
 22 55  1  0  0  0  0
 23 57  1  0  0  0  0
 23 58  1  0  0  0  0
 24 27  2  0  0  0  0
 24 33  1  0  0  0  0
 24 34  1  0  0  0  0
 25 29  2  0  0  0  0
 25 30  1  0  0  0  0
 26 28  2  0  0  0  0
 26 59  1  0  0  0  0
 27 60  1  0  0  0  0
 28 61  1  0  0  0  0
 29 63  1  0  0  0  0
 30 64  1  0  0  0  0
 32 34  2  0  0  0  0
 32 65  1  0  0  0  0
 33 35  2  0  0  0  0
 33 36  1  0  0  0  0
 34 66  1  0  0  0  0
 35 37  1  0  0  0  0
 35 67  1  0  0  0  0
 36 39  2  0  0  0  0
 36 68  1  0  0  0  0
 37 38  2  0  0  0  0
 38 39  1  0  0  0  0
 38 40  1  0  0  0  0
 39 69  1  0  0  0  0
 40 42  1  0  0  0  0
 40 70  1  0  0  0  0
 40 71  1  0  0  0  0
 41 72  1  0  0  0  0
 41 73  1  0  0  0  0
 41 74  1  0  0  0  0
M  END
> <PUBCHEM_COMPOUND_CID>
49830577

> <PUBCHEM_COMPOUND_CANONICALIZED>
1

> <PUBCHEM_CACTVS_COMPLEXITY>
926

> <PUBCHEM_CACTVS_HBOND_ACCEPTOR>
7

> <PUBCHEM_CACTVS_HBOND_DONOR>
2

> <PUBCHEM_CACTVS_ROTATABLE_BOND>
8

> <PUBCHEM_CACTVS_SUBSKEYS>
AAADcfB/uAAAAAAAAAAAAAAAAAAAAAAAAAA8YMGCBYAAAAABVAAAHgAQAAAADAzhmAYyxoPABACYBiVSUACCCAAlIgAIiAEOfMgO5nrE9ZuXOajk1BHY6c+42POOyEABQAAKACCQgAKAABQAQAAAAAAAAA==

> <PUBCHEM_IUPAC_OPENEYE_NAME>
2-[2-methoxy-4-[3-[2-(4-morpholinophenoxy)ethyl]-6-oxo-5,11-dihydrobenzo[b][1,4]benzodiazepin-9-yl]phenyl]acetonitrile

> <PUBCHEM_IUPAC_CAS_NAME>
2-[2-methoxy-4-[3-[2-[4-(4-morpholinyl)phenoxy]ethyl]-6-oxo-5,11-dihydrobenzo[b][1,4]benzodiazepin-9-yl]phenyl]acetonitrile

> <PUBCHEM_IUPAC_NAME_MARKUP>
2-[2-methoxy-4-[3-[2-(4-morpholin-4-ylphenoxy)ethyl]-6-oxo-5,11-dihydrobenzo[b][1,4]benzodiazepin-9-yl]phenyl]acetonitrile

> <PUBCHEM_IUPAC_NAME>
2-[2-methoxy-4-[3-[2-(4-morpholin-4-ylphenoxy)ethyl]-6-oxo-5,11-dihydrobenzo[b][1,4]benzodiazepin-9-yl]phenyl]acetonitrile

> <PUBCHEM_IUPAC_SYSTEMATIC_NAME>
2-[2-methoxy-4-[3-[2-(4-morpholin-4-ylphenoxy)ethyl]-6-oxidanylidene-5,11-dihydrobenzo[b][1,4]benzodiazepin-9-yl]phenyl]ethanenitrile

> <PUBCHEM_IUPAC_TRADITIONAL_NAME>
2-[4-[6-keto-3-[2-(4-morpholinophenoxy)ethyl]-5,11-dihydrobenzo[b][1,4]benzodiazepin-9-yl]-2-methoxy-phenyl]acetonitrile

> <PUBCHEM_IUPAC_INCHI>
InChI=1S/C34H32N4O4/c1-40-33-22-26(4-3-24(33)12-14-35)25-5-10-29-31(21-25)36-30-11-2-23(20-32(30)37-34(29)39)13-17-42-28-8-6-27(7-9-28)38-15-18-41-19-16-38/h2-11,20-22,36H,12-13,15-19H2,1H3,(H,37,39)

> <PUBCHEM_IUPAC_INCHIKEY>
SAKSWJGBCYLXHW-UHFFFAOYSA-N

> <PUBCHEM_XLOGP3_AA>
5.3

> <PUBCHEM_EXACT_MASS>
560.24235551

> <PUBCHEM_MOLECULAR_FORMULA>
C34H32N4O4

> <PUBCHEM_MOLECULAR_WEIGHT>
560.6

> <PUBCHEM_SMILES>
COC1=C(C=CC(=C1)C2=CC3=C(C=C2)C(=O)NC4=C(N3)C=CC(=C4)CCOC5=CC=C(C=C5)N6CCOCC6)CC#N

> <PUBCHEM_OPENEYE_CAN_SMILES>
COC1=C(C=CC(=C1)C2=CC3=C(C=C2)C(=O)NC4=C(N3)C=CC(=C4)CCOC5=CC=C(C=C5)N6CCOCC6)CC#N

> <PUBCHEM_OPENEYE_ISO_SMILES>
COC1=C(C=CC(=C1)C2=CC3=C(C=C2)C(=O)NC4=C(N3)C=CC(=C4)CCOC5=CC=C(C=C5)N6CCOCC6)CC#N

> <PUBCHEM_CACTVS_TPSA>
95.9

> <PUBCHEM_MONOISOTOPIC_WEIGHT>
560.24235551

> <PUBCHEM_TOTAL_CHARGE>
0

> <PUBCHEM_HEAVY_ATOM_COUNT>
42

> <PUBCHEM_ATOM_DEF_STEREO_COUNT>
0

> <PUBCHEM_ATOM_UDEF_STEREO_COUNT>
0

> <PUBCHEM_BOND_DEF_STEREO_COUNT>
0

> <PUBCHEM_BOND_UDEF_STEREO_COUNT>
0

> <PUBCHEM_ISOTOPIC_ATOM_COUNT>
0

> <PUBCHEM_COMPONENT_COUNT>
1

> <PUBCHEM_CACTVS_TAUTO_COUNT>
-1

> <PUBCHEM_COORDINATE_TYPE>
1
5
255

> <PUBCHEM_BONDANNOTATIONS>
13  19  8
13  20  8
14  15  8
14  26  8
15  22  8
16  22  8
16  28  8
17  21  8
17  27  8
19  29  8
20  30  8
21  32  8
24  27  8
24  34  8
25  29  8
25  30  8
26  28  8
32  34  8
33  35  8
33  36  8
35  37  8
36  39  8
37  38  8
38  39  8

$$$$
