49830762
  -OEChem-03202502302D

 47 50  0     0  0  0  0  0  0999 V2000
    8.0836   -0.0377    0.0000 S   0  0  0  0  0  0  0  0  0  0  0  0
    6.0000    1.6330    0.0000 O   0  0  0  0  0  0  0  0  0  0  0  0
   10.5687    0.7670    0.0000 N   0  0  0  0  0  0  0  0  0  0  0  0
    6.0000   -0.0990    0.0000 N   0  0  0  0  0  0  0  0  0  0  0  0
    9.9809   -0.0420    0.0000 N   0  0  0  0  0  0  0  0  0  0  0  0
    3.0000   -3.5631    0.0000 N   0  0  0  0  0  0  0  0  0  0  0  0
    9.0298    1.2670    0.0000 C   0  0  0  0  0  0  0  0  0  0  0  0
    9.9809    1.5760    0.0000 C   0  0  0  0  0  0  0  0  0  0  0  0
    9.0298    0.2670    0.0000 C   0  0  0  0  0  0  0  0  0  0  0  0
    8.0836    1.5717    0.0000 C   0  0  0  0  0  0  0  0  0  0  0  0
    7.5000    0.7670    0.0000 C   0  0  0  0  0  0  0  0  0  0  0  0
   10.2899    2.5271    0.0000 C   0  0  0  0  0  0  0  0  0  0  0  0
    5.0000   -0.0990    0.0000 C   0  0  0  0  0  0  0  0  0  0  0  0
    4.5000   -0.9651    0.0000 C   0  0  0  0  0  0  0  0  0  0  0  0
    6.5000    0.7670    0.0000 C   0  0  0  0  0  0  0  0  0  0  0  0
    3.5000   -2.6971    0.0000 C   0  0  0  0  0  0  0  0  0  0  0  0
    5.0000   -1.8311    0.0000 C   0  0  0  0  0  0  0  0  0  0  0  0
    3.5000   -0.9651    0.0000 C   0  0  0  0  0  0  0  0  0  0  0  0
    4.5000   -2.6971    0.0000 C   0  0  0  0  0  0  0  0  0  0  0  0
    3.0000   -1.8311    0.0000 C   0  0  0  0  0  0  0  0  0  0  0  0
    9.6208    3.2702    0.0000 C   0  0  0  0  0  0  0  0  0  0  0  0
   11.2681    2.7350    0.0000 C   0  0  0  0  0  0  0  0  0  0  0  0
    9.9298    4.2213    0.0000 C   0  0  0  0  0  0  0  0  0  0  0  0
   11.5771    3.6860    0.0000 C   0  0  0  0  0  0  0  0  0  0  0  0
    2.0000   -3.5631    0.0000 C   0  0  0  0  0  0  0  0  0  0  0  0
    3.5000   -4.4292    0.0000 C   0  0  0  0  0  0  0  0  0  0  0  0
   10.9079    4.4292    0.0000 C   0  0  0  0  0  0  0  0  0  0  0  0
    7.8910    2.1610    0.0000 H   0  0  0  0  0  0  0  0  0  0  0  0
    5.1077    0.5115    0.0000 H   0  0  0  0  0  0  0  0  0  0  0  0
    4.4174    0.1130    0.0000 H   0  0  0  0  0  0  0  0  0  0  0  0
   11.1887    0.7670    0.0000 H   0  0  0  0  0  0  0  0  0  0  0  0
    6.3100   -0.6360    0.0000 H   0  0  0  0  0  0  0  0  0  0  0  0
    5.6200   -1.8311    0.0000 H   0  0  0  0  0  0  0  0  0  0  0  0
    3.1900   -0.4281    0.0000 H   0  0  0  0  0  0  0  0  0  0  0  0
    4.8100   -3.2340    0.0000 H   0  0  0  0  0  0  0  0  0  0  0  0
    2.3800   -1.8311    0.0000 H   0  0  0  0  0  0  0  0  0  0  0  0
    9.0143    3.1413    0.0000 H   0  0  0  0  0  0  0  0  0  0  0  0
   11.6829    2.2742    0.0000 H   0  0  0  0  0  0  0  0  0  0  0  0
    9.5149    4.6820    0.0000 H   0  0  0  0  0  0  0  0  0  0  0  0
   12.1835    3.8149    0.0000 H   0  0  0  0  0  0  0  0  0  0  0  0
    2.0000   -2.9431    0.0000 H   0  0  0  0  0  0  0  0  0  0  0  0
    1.3800   -3.5631    0.0000 H   0  0  0  0  0  0  0  0  0  0  0  0
    2.0000   -4.1831    0.0000 H   0  0  0  0  0  0  0  0  0  0  0  0
    2.9631   -4.7392    0.0000 H   0  0  0  0  0  0  0  0  0  0  0  0
    3.8100   -4.9661    0.0000 H   0  0  0  0  0  0  0  0  0  0  0  0
    4.0369   -4.1192    0.0000 H   0  0  0  0  0  0  0  0  0  0  0  0
   11.0995    5.0188    0.0000 H   0  0  0  0  0  0  0  0  0  0  0  0
  1  9  1  0  0  0  0
  1 11  1  0  0  0  0
  2 15  2  0  0  0  0
  3  5  1  0  0  0  0
  3  8  1  0  0  0  0
  3 31  1  0  0  0  0
  4 13  1  0  0  0  0
  4 15  1  0  0  0  0
  4 32  1  0  0  0  0
  5  9  2  0  0  0  0
  6 16  1  0  0  0  0
  6 25  1  0  0  0  0
  6 26  1  0  0  0  0
  7  8  2  0  0  0  0
  7  9  1  0  0  0  0
  7 10  1  0  0  0  0
  8 12  1  0  0  0  0
 10 11  2  0  0  0  0
 10 28  1  0  0  0  0
 11 15  1  0  0  0  0
 12 21  2  0  0  0  0
 12 22  1  0  0  0  0
 13 14  1  0  0  0  0
 13 29  1  0  0  0  0
 13 30  1  0  0  0  0
 14 17  2  0  0  0  0
 14 18  1  0  0  0  0
 16 19  2  0  0  0  0
 16 20  1  0  0  0  0
 17 19  1  0  0  0  0
 17 33  1  0  0  0  0
 18 20  2  0  0  0  0
 18 34  1  0  0  0  0
 19 35  1  0  0  0  0
 20 36  1  0  0  0  0
 21 23  1  0  0  0  0
 21 37  1  0  0  0  0
 22 24  2  0  0  0  0
 22 38  1  0  0  0  0
 23 27  2  0  0  0  0
 23 39  1  0  0  0  0
 24 27  1  0  0  0  0
 24 40  1  0  0  0  0
 25 41  1  0  0  0  0
 25 42  1  0  0  0  0
 25 43  1  0  0  0  0
 26 44  1  0  0  0  0
 26 45  1  0  0  0  0
 26 46  1  0  0  0  0
 27 47  1  0  0  0  0
M  END
> <PUBCHEM_COMPOUND_CID>
49830762

> <PUBCHEM_COMPOUND_CANONICALIZED>
1

> <PUBCHEM_CACTVS_COMPLEXITY>
502

> <PUBCHEM_CACTVS_HBOND_ACCEPTOR>
4

> <PUBCHEM_CACTVS_HBOND_DONOR>
2

> <PUBCHEM_CACTVS_ROTATABLE_BOND>
5

> <PUBCHEM_CACTVS_SUBSKEYS>
AAADceB7oABAAAAAAAAAAAAAAAAAAWJAAAAwYAAAAAAWAAAB/AAAHgQYAAAADAjB3gQywdPjAAiuAyVyUACTBIBlChBYubkoZNgIILLg1dGEpQxgjgDoyYcYicCeCAAAAAAAAAAQAAAAAAAAAAAAAAAAAA==

> <PUBCHEM_IUPAC_OPENEYE_NAME>
N-[[4-(dimethylamino)phenyl]methyl]-3-phenyl-2H-thieno[2,3-c]pyrazole-5-carboxamide

> <PUBCHEM_IUPAC_CAS_NAME>
N-[[4-(dimethylamino)phenyl]methyl]-3-phenyl-2H-thieno[2,3-c]pyrazole-5-carboxamide

> <PUBCHEM_IUPAC_NAME_MARKUP>
<I>N</I>-[[4-(dimethylamino)phenyl]methyl]-3-phenyl-2<I>H</I>-thieno[2,3-c]pyrazole-5-carboxamide

> <PUBCHEM_IUPAC_NAME>
N-[[4-(dimethylamino)phenyl]methyl]-3-phenyl-2H-thieno[2,3-c]pyrazole-5-carboxamide

> <PUBCHEM_IUPAC_SYSTEMATIC_NAME>
N-[[4-(dimethylamino)phenyl]methyl]-3-phenyl-2H-thieno[2,3-c]pyrazole-5-carboxamide

> <PUBCHEM_IUPAC_TRADITIONAL_NAME>
N-[4-(dimethylamino)benzyl]-3-phenyl-2H-thieno[2,3-c]pyrazole-5-carboxamide

> <PUBCHEM_IUPAC_INCHI>
InChI=1S/C21H20N4OS/c1-25(2)16-10-8-14(9-11-16)13-22-20(26)18-12-17-19(23-24-21(17)27-18)15-6-4-3-5-7-15/h3-12H,13H2,1-2H3,(H,22,26)(H,23,24)

> <PUBCHEM_IUPAC_INCHIKEY>
OSYFIVGHFZBFOD-UHFFFAOYSA-N

> <PUBCHEM_XLOGP3_AA>
4.5

> <PUBCHEM_EXACT_MASS>
376.13578245

> <PUBCHEM_MOLECULAR_FORMULA>
C21H20N4OS

> <PUBCHEM_MOLECULAR_WEIGHT>
376.5

> <PUBCHEM_SMILES>
CN(C)C1=CC=C(C=C1)CNC(=O)C2=CC3=C(NN=C3S2)C4=CC=CC=C4

> <PUBCHEM_OPENEYE_CAN_SMILES>
CN(C)C1=CC=C(C=C1)CNC(=O)C2=CC3=C(NN=C3S2)C4=CC=CC=C4

> <PUBCHEM_OPENEYE_ISO_SMILES>
CN(C)C1=CC=C(C=C1)CNC(=O)C2=CC3=C(NN=C3S2)C4=CC=CC=C4

> <PUBCHEM_CACTVS_TPSA>
89.3

> <PUBCHEM_MONOISOTOPIC_WEIGHT>
376.13578245

> <PUBCHEM_TOTAL_CHARGE>
0

> <PUBCHEM_HEAVY_ATOM_COUNT>
27

> <PUBCHEM_ATOM_DEF_STEREO_COUNT>
0

> <PUBCHEM_ATOM_UDEF_STEREO_COUNT>
0

> <PUBCHEM_BOND_DEF_STEREO_COUNT>
0

> <PUBCHEM_BOND_UDEF_STEREO_COUNT>
0

> <PUBCHEM_ISOTOPIC_ATOM_COUNT>
0

> <PUBCHEM_COMPONENT_COUNT>
1

> <PUBCHEM_CACTVS_TAUTO_COUNT>
-1

> <PUBCHEM_COORDINATE_TYPE>
1
5
255

> <PUBCHEM_BONDANNOTATIONS>
1  11  8
1  9  8
10  11  8
12  21  8
12  22  8
14  17  8
14  18  8
16  19  8
16  20  8
17  19  8
18  20  8
21  23  8
22  24  8
23  27  8
24  27  8
3  5  8
3  8  8
5  9  8
7  10  8
7  8  8
7  9  8

$$$$
