44355373
  -OEChem-03202500162D

 71 77  0     1  0  0  0  0  0999 V2000
    4.8175   -0.0103    0.0000 O   0  0  0  0  0  0  0  0  0  0  0  0
    4.7710   -2.6557    0.0000 O   0  0  0  0  0  0  0  0  0  0  0  0
    2.8139   -2.2433    0.0000 O   0  0  0  0  0  0  0  0  0  0  0  0
    2.1926   -0.3422    0.0000 O   0  0  0  0  0  0  0  0  0  0  0  0
    9.8326   -1.7552    0.0000 O   0  0  0  0  0  0  0  0  0  0  0  0
    9.8326    1.7552    0.0000 O   0  0  0  0  0  0  0  0  0  0  0  0
    6.2656   -4.7683    0.0000 O   0  0  0  0  0  0  0  0  0  0  0  0
    6.2656    4.7683    0.0000 O   0  0  0  0  0  0  0  0  0  0  0  0
   13.1055    1.7320    0.0000 O   0  0  0  0  0  0  0  0  0  0  0  0
   11.6055    2.5981    0.0000 O   0  0  0  0  0  0  0  0  0  0  0  0
    6.1066   -1.1671    0.0000 N   0  0  0  0  0  0  0  0  0  0  0  0
    6.1066    1.1671    0.0000 N   0  0  0  0  0  0  0  0  0  0  0  0
   10.1055    0.0000    0.0000 N   0  0  0  0  0  0  0  0  0  0  0  0
   11.1055    0.0000    0.0000 N   0  0  0  0  0  0  0  0  0  0  0  0
    5.1281   -0.9609    0.0000 C   0  0  1  0  0  0  0  0  0  0  0  0
    4.4603   -1.7052    0.0000 C   0  0  1  0  0  0  0  0  0  0  0  0
    6.8436   -0.5000    0.0000 C   0  0  0  0  0  0  0  0  0  0  0  0
    3.4818   -1.4990    0.0000 C   0  0  2  0  0  0  0  0  0  0  0  0
    7.7097   -1.0000    0.0000 C   0  0  0  0  0  0  0  0  0  0  0  0
    3.1711   -0.5484    0.0000 C   0  0  1  0  0  0  0  0  0  0  0  0
    3.8390    0.1959    0.0000 C   0  0  1  0  0  0  0  0  0  0  0  0
    6.5118   -2.0749    0.0000 C   0  0  0  0  0  0  0  0  0  0  0  0
    6.8436    0.5000    0.0000 C   0  0  0  0  0  0  0  0  0  0  0  0
    7.5005   -1.9718    0.0000 C   0  0  0  0  0  0  0  0  0  0  0  0
    8.5757   -0.5000    0.0000 C   0  0  0  0  0  0  0  0  0  0  0  0
    7.7097    1.0000    0.0000 C   0  0  0  0  0  0  0  0  0  0  0  0
    8.5757    0.5000    0.0000 C   0  0  0  0  0  0  0  0  0  0  0  0
    7.5005    1.9718    0.0000 C   0  0  0  0  0  0  0  0  0  0  0  0
    3.5283    1.1464    0.0000 C   0  0  0  0  0  0  0  0  0  0  0  0
    6.5118    2.0749    0.0000 C   0  0  0  0  0  0  0  0  0  0  0  0
    9.5219   -0.8047    0.0000 C   0  0  0  0  0  0  0  0  0  0  0  0
    6.0752   -3.0138    0.0000 C   0  0  0  0  0  0  0  0  0  0  0  0
    9.5219    0.8047    0.0000 C   0  0  0  0  0  0  0  0  0  0  0  0
    8.1212   -2.8006    0.0000 C   0  0  0  0  0  0  0  0  0  0  0  0
    6.6767   -3.8567    0.0000 C   0  0  0  0  0  0  0  0  0  0  0  0
    7.7066   -3.7494    0.0000 C   0  0  0  0  0  0  0  0  0  0  0  0
    8.1212    2.8006    0.0000 C   0  0  0  0  0  0  0  0  0  0  0  0
    6.0752    3.0138    0.0000 C   0  0  0  0  0  0  0  0  0  0  0  0
   11.6055    0.8660    0.0000 C   0  0  0  0  0  0  0  0  0  0  0  0
    7.7066    3.7494    0.0000 C   0  0  0  0  0  0  0  0  0  0  0  0
    6.6767    3.8567    0.0000 C   0  0  0  0  0  0  0  0  0  0  0  0
   12.6055    0.8660    0.0000 C   0  0  0  0  0  0  0  0  0  0  0  0
   11.1055    1.7320    0.0000 C   0  0  0  0  0  0  0  0  0  0  0  0
    5.3207   -1.5502    0.0000 H   0  0  0  0  0  0  0  0  0  0  0  0
    4.0462   -2.1666    0.0000 H   0  0  0  0  0  0  0  0  0  0  0  0
    2.8751   -1.3711    0.0000 H   0  0  0  0  0  0  0  0  0  0  0  0
    2.9785    0.0409    0.0000 H   0  0  0  0  0  0  0  0  0  0  0  0
    4.2530    0.6573    0.0000 H   0  0  0  0  0  0  0  0  0  0  0  0
    5.5000    1.0392    0.0000 H   0  0  0  0  0  0  0  0  0  0  0  0
    4.1176    1.3390    0.0000 H   0  0  0  0  0  0  0  0  0  0  0  0
    3.3357    1.7357    0.0000 H   0  0  0  0  0  0  0  0  0  0  0  0
    2.9390    0.9538    0.0000 H   0  0  0  0  0  0  0  0  0  0  0  0
    5.4579   -3.0710    0.0000 H   0  0  0  0  0  0  0  0  0  0  0  0
    8.7371   -2.7292    0.0000 H   0  0  0  0  0  0  0  0  0  0  0  0
    4.3569   -3.1172    0.0000 H   0  0  0  0  0  0  0  0  0  0  0  0
    2.2073   -2.1154    0.0000 H   0  0  0  0  0  0  0  0  0  0  0  0
    2.0000    0.2471    0.0000 H   0  0  0  0  0  0  0  0  0  0  0  0
    8.0725   -4.2499    0.0000 H   0  0  0  0  0  0  0  0  0  0  0  0
    8.7371    2.7292    0.0000 H   0  0  0  0  0  0  0  0  0  0  0  0
    5.4579    3.0710    0.0000 H   0  0  0  0  0  0  0  0  0  0  0  0
   11.4155   -0.5369    0.0000 H   0  0  0  0  0  0  0  0  0  0  0  0
   11.9155    0.3291    0.0000 H   0  0  0  0  0  0  0  0  0  0  0  0
    8.0725    4.2499    0.0000 H   0  0  0  0  0  0  0  0  0  0  0  0
    6.6277   -5.2716    0.0000 H   0  0  0  0  0  0  0  0  0  0  0  0
   12.4979    0.2554    0.0000 H   0  0  0  0  0  0  0  0  0  0  0  0
   13.1881    0.6540    0.0000 H   0  0  0  0  0  0  0  0  0  0  0  0
   10.6306    2.1306    0.0000 H   0  0  0  0  0  0  0  0  0  0  0  0
   10.6306    1.3335    0.0000 H   0  0  0  0  0  0  0  0  0  0  0  0
    6.6277    5.2716    0.0000 H   0  0  0  0  0  0  0  0  0  0  0  0
   13.7255    1.7320    0.0000 H   0  0  0  0  0  0  0  0  0  0  0  0
   11.2955    3.1350    0.0000 H   0  0  0  0  0  0  0  0  0  0  0  0
  1 15  1  0  0  0  0
  1 21  1  0  0  0  0
 16  2  1  6  0  0  0
  2 55  1  0  0  0  0
 18  3  1  1  0  0  0
  3 56  1  0  0  0  0
 20  4  1  6  0  0  0
  4 57  1  0  0  0  0
  5 31  2  0  0  0  0
  6 33  2  0  0  0  0
  7 35  1  0  0  0  0
  7 64  1  0  0  0  0
  8 41  1  0  0  0  0
  8 69  1  0  0  0  0
  9 42  1  0  0  0  0
  9 70  1  0  0  0  0
 10 43  1  0  0  0  0
 10 71  1  0  0  0  0
 15 11  1  1  0  0  0
 11 17  1  0  0  0  0
 11 22  1  0  0  0  0
 12 23  1  0  0  0  0
 12 30  1  0  0  0  0
 12 49  1  0  0  0  0
 13 14  1  0  0  0  0
 13 31  1  0  0  0  0
 13 33  1  0  0  0  0
 14 39  1  0  0  0  0
 14 61  1  0  0  0  0
 15 16  1  0  0  0  0
 15 44  1  0  0  0  0
 16 18  1  0  0  0  0
 16 45  1  0  0  0  0
 17 19  1  0  0  0  0
 17 23  2  0  0  0  0
 18 20  1  0  0  0  0
 18 46  1  0  0  0  0
 19 24  1  0  0  0  0
 19 25  2  0  0  0  0
 20 21  1  0  0  0  0
 20 47  1  0  0  0  0
 21 29  1  1  0  0  0
 21 48  1  0  0  0  0
 22 24  2  0  0  0  0
 22 32  1  0  0  0  0
 23 26  1  0  0  0  0
 24 34  1  0  0  0  0
 25 27  1  0  0  0  0
 25 31  1  0  0  0  0
 26 27  2  0  0  0  0
 26 28  1  0  0  0  0
 27 33  1  0  0  0  0
 28 30  2  0  0  0  0
 28 37  1  0  0  0  0
 29 50  1  0  0  0  0
 29 51  1  0  0  0  0
 29 52  1  0  0  0  0
 30 38  1  0  0  0  0
 32 35  2  0  0  0  0
 32 53  1  0  0  0  0
 34 36  2  0  0  0  0
 34 54  1  0  0  0  0
 35 36  1  0  0  0  0
 36 58  1  0  0  0  0
 37 40  2  0  0  0  0
 37 59  1  0  0  0  0
 38 41  2  0  0  0  0
 38 60  1  0  0  0  0
 39 42  1  0  0  0  0
 39 43  1  0  0  0  0
 39 62  1  0  0  0  0
 40 41  1  0  0  0  0
 40 63  1  0  0  0  0
 42 65  1  0  0  0  0
 42 66  1  0  0  0  0
 43 67  1  0  0  0  0
 43 68  1  0  0  0  0
M  END
> <PUBCHEM_COMPOUND_CID>
44355373

> <PUBCHEM_COMPOUND_CANONICALIZED>
1

> <PUBCHEM_CACTVS_COMPLEXITY>
1100

> <PUBCHEM_CACTVS_HBOND_ACCEPTOR>
11

> <PUBCHEM_CACTVS_HBOND_DONOR>
9

> <PUBCHEM_CACTVS_ROTATABLE_BOND>
5

> <PUBCHEM_CACTVS_SUBSKEYS>
AAADceB7vAAAAAAAAAAAAAAAAAAAAWLFgAA0YMEAAAAAAFgB/gAAHgAYCAAADDzhngYyxvPvlgCoAyVyVACCgCQlMiAa+aE+fNgLdvLClZOecQhn1Dnb2Qf92fOe6AACQgASACDQAASEACQAQAAAAAAAAA==

> <PUBCHEM_IUPAC_OPENEYE_NAME>
6,20-dihydroxy-13-[[2-hydroxy-1-(hydroxymethyl)ethyl]amino]-3-[(2R,3R,4S,5S,6R)-3,4,5-trihydroxy-6-methyl-tetrahydropyran-2-yl]-3,13,23-triazahexacyclo[14.7.0.02,10.04,9.011,15.017,22]tricosa-1,4(9),5,7,10,15,17(22),18,20-nonaene-12,14-dione

> <PUBCHEM_IUPAC_CAS_NAME>
13-(1,3-dihydroxypropan-2-ylamino)-6,20-dihydroxy-3-[(2R,3R,4S,5S,6R)-3,4,5-trihydroxy-6-methyl-2-oxanyl]-3,13,23-triazahexacyclo[14.7.0.02,10.04,9.011,15.017,22]tricosa-1,4(9),5,7,10,15,17(22),18,20-nonaene-12,14-dione

> <PUBCHEM_IUPAC_NAME_MARKUP>
13-(1,3-dihydroxypropan-2-ylamino)-6,20-dihydroxy-3-[(2<I>R</I>,3<I>R</I>,4<I>S</I>,5<I>S</I>,6<I>R</I>)-3,4,5-trihydroxy-6-methyloxan-2-yl]-3,13,23-triazahexacyclo[14.7.0.0<SUP>2,10</SUP>.0<SUP>4,9</SUP>.0<SUP>11,15</SUP>.0<SUP>17,22</SUP>]tricosa-1,4(9),5,7,10,15,17(22),18,20-nonaene-12,14-dione

> <PUBCHEM_IUPAC_NAME>
13-(1,3-dihydroxypropan-2-ylamino)-6,20-dihydroxy-3-[(2R,3R,4S,5S,6R)-3,4,5-trihydroxy-6-methyloxan-2-yl]-3,13,23-triazahexacyclo[14.7.0.02,10.04,9.011,15.017,22]tricosa-1,4(9),5,7,10,15,17(22),18,20-nonaene-12,14-dione

> <PUBCHEM_IUPAC_SYSTEMATIC_NAME>
13-[1,3-bis(oxidanyl)propan-2-ylamino]-3-[(2R,3R,4S,5S,6R)-6-methyl-3,4,5-tris(oxidanyl)oxan-2-yl]-6,20-bis(oxidanyl)-3,13,23-triazahexacyclo[14.7.0.02,10.04,9.011,15.017,22]tricosa-1,4(9),5,7,10,15,17(22),18,20-nonaene-12,14-dione

> <PUBCHEM_IUPAC_TRADITIONAL_NAME>
6,20-dihydroxy-13-[(2-hydroxy-1-methylol-ethyl)amino]-3-[(2R,3R,4S,5S,6R)-3,4,5-trihydroxy-6-methyl-tetrahydropyran-2-yl]-3,13,23-triazahexacyclo[14.7.0.02,10.04,9.011,15.017,22]tricosa-1,4(9),5,7,10,15,17(22),18,20-nonaene-12,14-quinone

> <PUBCHEM_IUPAC_INCHI>
InChI=1S/C29H28N4O10/c1-10-24(38)25(39)26(40)29(43-10)32-17-7-13(37)3-5-15(17)19-21-20(27(41)33(28(21)42)31-11(8-34)9-35)18-14-4-2-12(36)6-16(14)30-22(18)23(19)32/h2-7,10-11,24-26,29-31,34-40H,8-9H2,1H3/t10-,24-,25+,26-,29-/m1/s1

> <PUBCHEM_IUPAC_INCHIKEY>
SVGBJMZKARIVJG-GBHIQSMOSA-N

> <PUBCHEM_XLOGP3_AA>
-0.2

> <PUBCHEM_EXACT_MASS>
592.18054310

> <PUBCHEM_MOLECULAR_FORMULA>
C29H28N4O10

> <PUBCHEM_MOLECULAR_WEIGHT>
592.6

> <PUBCHEM_SMILES>
C[C@@H]1[C@H]([C@@H]([C@H]([C@@H](O1)N2C3=C(C=CC(=C3)O)C4=C5C(=C6C7=C(C=C(C=C7)O)NC6=C42)C(=O)N(C5=O)NC(CO)CO)O)O)O

> <PUBCHEM_OPENEYE_CAN_SMILES>
CC1C(C(C(C(O1)N2C3=C(C=CC(=C3)O)C4=C5C(=C6C7=C(C=C(C=C7)O)NC6=C42)C(=O)N(C5=O)NC(CO)CO)O)O)O

> <PUBCHEM_OPENEYE_ISO_SMILES>
C[C@@H]1[C@H]([C@@H]([C@H]([C@@H](O1)N2C3=C(C=CC(=C3)O)C4=C5C(=C6C7=C(C=C(C=C7)O)NC6=C42)C(=O)N(C5=O)NC(CO)CO)O)O)O

> <PUBCHEM_CACTVS_TPSA>
221

> <PUBCHEM_MONOISOTOPIC_WEIGHT>
592.18054310

> <PUBCHEM_TOTAL_CHARGE>
0

> <PUBCHEM_HEAVY_ATOM_COUNT>
43

> <PUBCHEM_ATOM_DEF_STEREO_COUNT>
5

> <PUBCHEM_ATOM_UDEF_STEREO_COUNT>
0

> <PUBCHEM_BOND_DEF_STEREO_COUNT>
0

> <PUBCHEM_BOND_UDEF_STEREO_COUNT>
0

> <PUBCHEM_ISOTOPIC_ATOM_COUNT>
0

> <PUBCHEM_COMPONENT_COUNT>
1

> <PUBCHEM_CACTVS_TAUTO_COUNT>
-1

> <PUBCHEM_COORDINATE_TYPE>
1
5
255

> <PUBCHEM_BONDANNOTATIONS>
15  11  5
11  17  8
11  22  8
12  23  8
12  30  8
17  19  8
17  23  8
19  24  8
19  25  8
16  2  6
21  29  5
22  24  8
22  32  8
23  26  8
24  34  8
25  27  8
26  27  8
26  28  8
28  30  8
28  37  8
18  3  5
30  38  8
32  35  8
34  36  8
35  36  8
37  40  8
38  41  8
20  4  6
40  41  8

$$$$
