44219749
  -OEChem-03202507012D

 65 69  0     0  0  0  0  0  0999 V2000
    8.9282    4.8818    0.0000 O   0  0  0  0  0  0  0  0  0  0  0  0
   12.9616   -3.9313    0.0000 O   0  0  0  0  0  0  0  0  0  0  0  0
   11.3153   -4.4693    0.0000 O   0  0  0  0  0  0  0  0  0  0  0  0
    2.8660   -1.6182    0.0000 O   0  0  0  0  0  0  0  0  0  0  0  0
    3.7320   -0.1182    0.0000 O   0  0  0  0  0  0  0  0  0  0  0  0
   10.7404    0.0770    0.0000 N   0  0  0  0  0  0  0  0  0  0  0  0
   11.6724   -2.7745    0.0000 N   0  0  0  0  0  0  0  0  0  0  0  0
   11.3241    0.8818    0.0000 N   0  0  0  0  0  0  0  0  0  0  0  0
    8.9282    2.8818    0.0000 N   0  0  0  0  0  0  0  0  0  0  0  0
    8.9282   -0.1182    0.0000 N   0  0  0  0  0  0  0  0  0  0  0  0
    8.0622    1.3818    0.0000 N   0  0  0  0  0  0  0  0  0  0  0  0
    4.5981   -1.6182    0.0000 N   0  0  0  0  0  0  0  0  0  0  0  0
   11.0511   -0.8735    0.0000 C   0  0  0  0  0  0  0  0  0  0  0  0
   12.0296   -1.0797    0.0000 C   0  0  0  0  0  0  0  0  0  0  0  0
   10.3833   -1.6178    0.0000 C   0  0  0  0  0  0  0  0  0  0  0  0
   12.3403   -2.0302    0.0000 C   0  0  0  0  0  0  0  0  0  0  0  0
   10.6939   -2.5683    0.0000 C   0  0  0  0  0  0  0  0  0  0  0  0
    9.7942    0.3818    0.0000 C   0  0  0  0  0  0  0  0  0  0  0  0
    9.7942    1.3818    0.0000 C   0  0  0  0  0  0  0  0  0  0  0  0
    8.9282    1.8818    0.0000 C   0  0  0  0  0  0  0  0  0  0  0  0
   11.9831   -3.7250    0.0000 C   0  0  0  0  0  0  0  0  0  0  0  0
   10.7404    1.6865    0.0000 C   0  0  0  0  0  0  0  0  0  0  0  0
    9.7942    3.3818    0.0000 C   0  0  0  0  0  0  0  0  0  0  0  0
    8.0622    3.3818    0.0000 C   0  0  0  0  0  0  0  0  0  0  0  0
    8.0622    0.3818    0.0000 C   0  0  0  0  0  0  0  0  0  0  0  0
    9.7942    4.3818    0.0000 C   0  0  0  0  0  0  0  0  0  0  0  0
    8.0622    4.3818    0.0000 C   0  0  0  0  0  0  0  0  0  0  0  0
    7.1962   -0.1182    0.0000 C   0  0  0  0  0  0  0  0  0  0  0  0
   13.2723   -4.8818    0.0000 C   0  0  0  0  0  0  0  0  0  0  0  0
    6.3301    0.3818    0.0000 C   0  0  0  0  0  0  0  0  0  0  0  0
    7.1962   -1.1182    0.0000 C   0  0  0  0  0  0  0  0  0  0  0  0
    5.4641   -0.1182    0.0000 C   0  0  0  0  0  0  0  0  0  0  0  0
    6.3301   -1.6182    0.0000 C   0  0  0  0  0  0  0  0  0  0  0  0
    5.4641   -1.1182    0.0000 C   0  0  0  0  0  0  0  0  0  0  0  0
    3.7320   -1.1182    0.0000 C   0  0  0  0  0  0  0  0  0  0  0  0
    2.0000   -1.1182    0.0000 C   0  0  0  0  0  0  0  0  0  0  0  0
   10.4444   -0.7456    0.0000 H   0  0  0  0  0  0  0  0  0  0  0  0
   12.6434   -0.9923    0.0000 H   0  0  0  0  0  0  0  0  0  0  0  0
   12.0502   -0.4600    0.0000 H   0  0  0  0  0  0  0  0  0  0  0  0
   10.0007   -1.1299    0.0000 H   0  0  0  0  0  0  0  0  0  0  0  0
    9.8363   -1.9098    0.0000 H   0  0  0  0  0  0  0  0  0  0  0  0
   12.7228   -2.5181    0.0000 H   0  0  0  0  0  0  0  0  0  0  0  0
   12.8872   -1.7382    0.0000 H   0  0  0  0  0  0  0  0  0  0  0  0
   10.0801   -2.6556    0.0000 H   0  0  0  0  0  0  0  0  0  0  0  0
   10.6734   -3.1880    0.0000 H   0  0  0  0  0  0  0  0  0  0  0  0
   10.9331    2.2758    0.0000 H   0  0  0  0  0  0  0  0  0  0  0  0
   10.0063    2.7992    0.0000 H   0  0  0  0  0  0  0  0  0  0  0  0
   10.4048    3.4894    0.0000 H   0  0  0  0  0  0  0  0  0  0  0  0
    7.4516    3.4894    0.0000 H   0  0  0  0  0  0  0  0  0  0  0  0
    7.8501    2.7992    0.0000 H   0  0  0  0  0  0  0  0  0  0  0  0
   10.4048    4.2741    0.0000 H   0  0  0  0  0  0  0  0  0  0  0  0
   10.0063    4.9644    0.0000 H   0  0  0  0  0  0  0  0  0  0  0  0
    7.8501    4.9644    0.0000 H   0  0  0  0  0  0  0  0  0  0  0  0
    7.4516    4.2741    0.0000 H   0  0  0  0  0  0  0  0  0  0  0  0
   12.6829   -5.0744    0.0000 H   0  0  0  0  0  0  0  0  0  0  0  0
   13.4649   -5.4711    0.0000 H   0  0  0  0  0  0  0  0  0  0  0  0
   13.8616   -4.6892    0.0000 H   0  0  0  0  0  0  0  0  0  0  0  0
    6.3301    1.0018    0.0000 H   0  0  0  0  0  0  0  0  0  0  0  0
    7.7331   -1.4282    0.0000 H   0  0  0  0  0  0  0  0  0  0  0  0
    4.9272    0.1918    0.0000 H   0  0  0  0  0  0  0  0  0  0  0  0
    6.3301   -2.2382    0.0000 H   0  0  0  0  0  0  0  0  0  0  0  0
    4.5981   -2.2382    0.0000 H   0  0  0  0  0  0  0  0  0  0  0  0
    2.3100   -0.5813    0.0000 H   0  0  0  0  0  0  0  0  0  0  0  0
    1.4631   -0.8082    0.0000 H   0  0  0  0  0  0  0  0  0  0  0  0
    1.6900   -1.6552    0.0000 H   0  0  0  0  0  0  0  0  0  0  0  0
  1 26  1  0  0  0  0
  1 27  1  0  0  0  0
  2 21  1  0  0  0  0
  2 29  1  0  0  0  0
  3 21  2  0  0  0  0
  4 35  1  0  0  0  0
  4 36  1  0  0  0  0
  5 35  2  0  0  0  0
  6  8  1  0  0  0  0
  6 13  1  0  0  0  0
  6 18  1  0  0  0  0
  7 16  1  0  0  0  0
  7 17  1  0  0  0  0
  7 21  1  0  0  0  0
  8 22  2  0  0  0  0
  9 20  1  0  0  0  0
  9 23  1  0  0  0  0
  9 24  1  0  0  0  0
 10 18  1  0  0  0  0
 10 25  2  0  0  0  0
 11 20  2  0  0  0  0
 11 25  1  0  0  0  0
 12 34  1  0  0  0  0
 12 35  1  0  0  0  0
 12 62  1  0  0  0  0
 13 14  1  0  0  0  0
 13 15  1  0  0  0  0
 13 37  1  0  0  0  0
 14 16  1  0  0  0  0
 14 38  1  0  0  0  0
 14 39  1  0  0  0  0
 15 17  1  0  0  0  0
 15 40  1  0  0  0  0
 15 41  1  0  0  0  0
 16 42  1  0  0  0  0
 16 43  1  0  0  0  0
 17 44  1  0  0  0  0
 17 45  1  0  0  0  0
 18 19  2  0  0  0  0
 19 20  1  0  0  0  0
 19 22  1  0  0  0  0
 22 46  1  0  0  0  0
 23 26  1  0  0  0  0
 23 47  1  0  0  0  0
 23 48  1  0  0  0  0
 24 27  1  0  0  0  0
 24 49  1  0  0  0  0
 24 50  1  0  0  0  0
 25 28  1  0  0  0  0
 26 51  1  0  0  0  0
 26 52  1  0  0  0  0
 27 53  1  0  0  0  0
 27 54  1  0  0  0  0
 28 30  2  0  0  0  0
 28 31  1  0  0  0  0
 29 55  1  0  0  0  0
 29 56  1  0  0  0  0
 29 57  1  0  0  0  0
 30 32  1  0  0  0  0
 30 58  1  0  0  0  0
 31 33  2  0  0  0  0
 31 59  1  0  0  0  0
 32 34  2  0  0  0  0
 32 60  1  0  0  0  0
 33 34  1  0  0  0  0
 33 61  1  0  0  0  0
 36 63  1  0  0  0  0
 36 64  1  0  0  0  0
 36 65  1  0  0  0  0
M  END
> <PUBCHEM_COMPOUND_CID>
44219749

> <PUBCHEM_COMPOUND_CANONICALIZED>
1

> <PUBCHEM_CACTVS_COMPLEXITY>
753

> <PUBCHEM_CACTVS_HBOND_ACCEPTOR>
9

> <PUBCHEM_CACTVS_HBOND_DONOR>
1

> <PUBCHEM_CACTVS_ROTATABLE_BOND>
6

> <PUBCHEM_CACTVS_SUBSKEYS>
AAADceB7uAAAAAAAAAAAAAAAAAAAAWAAAAA8WLEAAAAAAFgB/AAAHgAYAAAADCjhmwY/+N/IFACqAjZnfACShCshgqAd2CAoZJmKKKLA2dGHpAhongLYyCcQgAAOCAAAAAAAAAAQAAAAAAAAAAAAAAAAAA==

> <PUBCHEM_IUPAC_OPENEYE_NAME>
methyl 4-[6-[4-(methoxycarbonylamino)phenyl]-4-morpholino-pyrazolo[3,4-d]pyrimidin-1-yl]piperidine-1-carboxylate

> <PUBCHEM_IUPAC_CAS_NAME>
4-[6-[4-(methoxycarbonylamino)phenyl]-4-(4-morpholinyl)-1-pyrazolo[3,4-d]pyrimidinyl]-1-piperidinecarboxylic acid methyl ester

> <PUBCHEM_IUPAC_NAME_MARKUP>
methyl 4-[6-[4-(methoxycarbonylamino)phenyl]-4-morpholin-4-ylpyrazolo[3,4-d]pyrimidin-1-yl]piperidine-1-carboxylate

> <PUBCHEM_IUPAC_NAME>
methyl 4-[6-[4-(methoxycarbonylamino)phenyl]-4-morpholin-4-ylpyrazolo[3,4-d]pyrimidin-1-yl]piperidine-1-carboxylate

> <PUBCHEM_IUPAC_SYSTEMATIC_NAME>
methyl 4-[6-[4-(methoxycarbonylamino)phenyl]-4-morpholin-4-yl-pyrazolo[3,4-d]pyrimidin-1-yl]piperidine-1-carboxylate

> <PUBCHEM_IUPAC_TRADITIONAL_NAME>
4-[6-[4-(carbomethoxyamino)phenyl]-4-morpholino-pyrazolo[3,4-d]pyrimidin-1-yl]piperidine-1-carboxylic acid methyl ester

> <PUBCHEM_IUPAC_INCHI>
InChI=1S/C24H29N7O5/c1-34-23(32)26-17-5-3-16(4-6-17)20-27-21(29-11-13-36-14-12-29)19-15-25-31(22(19)28-20)18-7-9-30(10-8-18)24(33)35-2/h3-6,15,18H,7-14H2,1-2H3,(H,26,32)

> <PUBCHEM_IUPAC_INCHIKEY>
IMXHGCRIEAKIBU-UHFFFAOYSA-N

> <PUBCHEM_XLOGP3_AA>
1.9

> <PUBCHEM_EXACT_MASS>
495.22301705

> <PUBCHEM_MOLECULAR_FORMULA>
C24H29N7O5

> <PUBCHEM_MOLECULAR_WEIGHT>
495.5

> <PUBCHEM_SMILES>
COC(=O)NC1=CC=C(C=C1)C2=NC3=C(C=NN3C4CCN(CC4)C(=O)OC)C(=N2)N5CCOCC5

> <PUBCHEM_OPENEYE_CAN_SMILES>
COC(=O)NC1=CC=C(C=C1)C2=NC3=C(C=NN3C4CCN(CC4)C(=O)OC)C(=N2)N5CCOCC5

> <PUBCHEM_OPENEYE_ISO_SMILES>
COC(=O)NC1=CC=C(C=C1)C2=NC3=C(C=NN3C4CCN(CC4)C(=O)OC)C(=N2)N5CCOCC5

> <PUBCHEM_CACTVS_TPSA>
124

> <PUBCHEM_MONOISOTOPIC_WEIGHT>
495.22301705

> <PUBCHEM_TOTAL_CHARGE>
0

> <PUBCHEM_HEAVY_ATOM_COUNT>
36

> <PUBCHEM_ATOM_DEF_STEREO_COUNT>
0

> <PUBCHEM_ATOM_UDEF_STEREO_COUNT>
0

> <PUBCHEM_BOND_DEF_STEREO_COUNT>
0

> <PUBCHEM_BOND_UDEF_STEREO_COUNT>
0

> <PUBCHEM_ISOTOPIC_ATOM_COUNT>
0

> <PUBCHEM_COMPONENT_COUNT>
1

> <PUBCHEM_CACTVS_TAUTO_COUNT>
-1

> <PUBCHEM_COORDINATE_TYPE>
1
5
255

> <PUBCHEM_BONDANNOTATIONS>
10  18  8
10  25  8
11  20  8
11  25  8
18  19  8
19  20  8
19  22  8
28  30  8
28  31  8
30  32  8
31  33  8
32  34  8
33  34  8
6  18  8
6  8  8
8  22  8

$$$$
