68783839
  -OEChem-03202504372D

 43 46  0     1  0  0  0  0  0999 V2000
    5.6372    1.2728    0.0000 Br  0  0  0  0  0  0  0  0  0  0  0  0
    2.0000    2.7935    0.0000 O   0  0  0  0  0  0  0  0  0  0  0  0
    3.6449    1.0985    0.0000 N   0  0  0  0  0  0  0  0  0  0  0  0
    2.7320    4.3633    0.0000 N   0  0  0  0  0  0  0  0  0  0  0  0
    3.7958   -0.6270    0.0000 N   0  0  0  0  0  0  0  0  0  0  0  0
    5.3656   -1.3590    0.0000 N   0  0  0  0  0  0  0  0  0  0  0  0
    3.9468   -2.3524    0.0000 N   0  0  0  0  0  0  0  0  0  0  0  0
    5.8126   -4.1453    0.0000 N   0  0  0  0  0  0  0  0  0  0  0  0
    4.9934   -4.7189    0.0000 N   0  0  0  0  0  0  0  0  0  0  0  0
    5.4402    2.5968    0.0000 C   0  0  2  0  0  0  0  0  0  0  0  0
    5.6990    3.5627    0.0000 C   0  0  1  0  0  0  0  0  0  0  0  0
    4.0675    2.0048    0.0000 C   0  0  2  0  0  0  0  0  0  0  0  0
    3.7255    2.9445    0.0000 C   0  0  1  0  0  0  0  0  0  0  0  0
    4.9624    4.5454    0.0000 C   0  0  0  0  0  0  0  0  0  0  0  0
    6.8391    2.0880    0.0000 C   0  0  0  0  0  0  0  0  0  0  0  0
    7.0979    3.0539    0.0000 C   0  0  0  0  0  0  0  0  0  0  0  0
    2.8192    3.3671    0.0000 C   0  0  0  0  0  0  0  0  0  0  0  0
    4.2184    0.2793    0.0000 C   0  0  0  0  0  0  0  0  0  0  0  0
    5.2146    0.3665    0.0000 C   0  0  0  0  0  0  0  0  0  0  0  0
    4.3694   -1.4461    0.0000 C   0  0  0  0  0  0  0  0  0  0  0  0
    5.7882   -0.4527    0.0000 C   0  0  0  0  0  0  0  0  0  0  0  0
    4.5204   -3.1716    0.0000 C   0  0  0  0  0  0  0  0  0  0  0  0
    5.5202   -3.1890    0.0000 C   0  0  0  0  0  0  0  0  0  0  0  0
    4.1948   -4.1171    0.0000 C   0  0  0  0  0  0  0  0  0  0  0  0
    6.7581   -4.4709    0.0000 C   0  0  0  0  0  0  0  0  0  0  0  0
    5.2202    1.7758    0.0000 H   0  0  0  0  0  0  0  0  0  0  0  0
    5.9190    4.3838    0.0000 H   0  0  0  0  0  0  0  0  0  0  0  0
    4.4995    1.5600    0.0000 H   0  0  0  0  0  0  0  0  0  0  0  0
    3.7666    3.5631    0.0000 H   0  0  0  0  0  0  0  0  0  0  0  0
    5.2802    5.0777    0.0000 H   0  0  0  0  0  0  0  0  0  0  0  0
    4.3492    4.6373    0.0000 H   0  0  0  0  0  0  0  0  0  0  0  0
    7.1255    1.5381    0.0000 H   0  0  0  0  0  0  0  0  0  0  0  0
    7.6479    3.3403    0.0000 H   0  0  0  0  0  0  0  0  0  0  0  0
    3.0272    1.0445    0.0000 H   0  0  0  0  0  0  0  0  0  0  0  0
    2.1701    4.6253    0.0000 H   0  0  0  0  0  0  0  0  0  0  0  0
    3.2399    4.7189    0.0000 H   0  0  0  0  0  0  0  0  0  0  0  0
    6.4058   -0.3986    0.0000 H   0  0  0  0  0  0  0  0  0  0  0  0
    3.3291   -2.4065    0.0000 H   0  0  0  0  0  0  0  0  0  0  0  0
    5.8933   -2.6939    0.0000 H   0  0  0  0  0  0  0  0  0  0  0  0
    3.6019   -4.2984    0.0000 H   0  0  0  0  0  0  0  0  0  0  0  0
    6.5562   -5.0571    0.0000 H   0  0  0  0  0  0  0  0  0  0  0  0
    7.3443   -4.6728    0.0000 H   0  0  0  0  0  0  0  0  0  0  0  0
    6.9599   -3.8847    0.0000 H   0  0  0  0  0  0  0  0  0  0  0  0
  1 19  1  0  0  0  0
  2 17  2  0  0  0  0
 12  3  1  1  0  0  0
  3 18  1  0  0  0  0
  3 34  1  0  0  0  0
  4 17  1  0  0  0  0
  4 35  1  0  0  0  0
  4 36  1  0  0  0  0
  5 18  2  0  0  0  0
  5 20  1  0  0  0  0
  6 20  2  0  0  0  0
  6 21  1  0  0  0  0
  7 20  1  0  0  0  0
  7 22  1  0  0  0  0
  7 38  1  0  0  0  0
  8  9  1  0  0  0  0
  8 23  1  0  0  0  0
  8 25  1  0  0  0  0
  9 24  2  0  0  0  0
 10 12  1  0  0  0  0
 10 14  1  0  0  0  0
 10 15  1  0  0  0  0
 10 26  1  1  0  0  0
 11 13  1  0  0  0  0
 11 14  1  0  0  0  0
 11 16  1  0  0  0  0
 11 27  1  6  0  0  0
 12 13  1  0  0  0  0
 12 28  1  0  0  0  0
 13 17  1  1  0  0  0
 13 29  1  0  0  0  0
 14 30  1  0  0  0  0
 14 31  1  0  0  0  0
 15 16  2  0  0  0  0
 15 32  1  0  0  0  0
 16 33  1  0  0  0  0
 18 19  1  0  0  0  0
 19 21  2  0  0  0  0
 21 37  1  0  0  0  0
 22 23  2  0  0  0  0
 22 24  1  0  0  0  0
 23 39  1  0  0  0  0
 24 40  1  0  0  0  0
 25 41  1  0  0  0  0
 25 42  1  0  0  0  0
 25 43  1  0  0  0  0
M  END
> <PUBCHEM_COMPOUND_CID>
68783839

> <PUBCHEM_COMPOUND_CANONICALIZED>
1

> <PUBCHEM_CACTVS_COMPLEXITY>
547

> <PUBCHEM_CACTVS_HBOND_ACCEPTOR>
6

> <PUBCHEM_CACTVS_HBOND_DONOR>
3

> <PUBCHEM_CACTVS_ROTATABLE_BOND>
5

> <PUBCHEM_CACTVS_SUBSKEYS>
AAADceB7oAAAEAAAAAAAAAAAAAAAAeIEAAAsQAAAAAAAAAAB4AAAHgBYAAABrSjBkgQv8JbIEACqADd3dACQhCkxkqAZWKEodBiASJpAyUAUhAgImALIACMYiACOgAAAAAAAAAAAAAAAAAAAASAACQAAAA==

> <PUBCHEM_IUPAC_OPENEYE_NAME>
(1S,2S,3R,4R)-3-[[5-bromo-2-[(1-methylpyrazol-4-yl)amino]pyrimidin-4-yl]amino]bicyclo[2.2.1]hept-5-ene-2-carboxamide

> <PUBCHEM_IUPAC_CAS_NAME>
(1S,2S,3R,4R)-3-[[5-bromo-2-[(1-methyl-4-pyrazolyl)amino]-4-pyrimidinyl]amino]-2-bicyclo[2.2.1]hept-5-enecarboxamide

> <PUBCHEM_IUPAC_NAME_MARKUP>
(1<I>S</I>,2<I>S</I>,3<I>R</I>,4<I>R</I>)-3-[[5-bromo-2-[(1-methylpyrazol-4-yl)amino]pyrimidin-4-yl]amino]bicyclo[2.2.1]hept-5-ene-2-carboxamide

> <PUBCHEM_IUPAC_NAME>
(1S,2S,3R,4R)-3-[[5-bromo-2-[(1-methylpyrazol-4-yl)amino]pyrimidin-4-yl]amino]bicyclo[2.2.1]hept-5-ene-2-carboxamide

> <PUBCHEM_IUPAC_SYSTEMATIC_NAME>
(1S,2S,3R,4R)-3-[[5-bromanyl-2-[(1-methylpyrazol-4-yl)amino]pyrimidin-4-yl]amino]bicyclo[2.2.1]hept-5-ene-2-carboxamide

> <PUBCHEM_IUPAC_TRADITIONAL_NAME>
(1S,2S,3R,4R)-3-[[5-bromo-2-[(1-methylpyrazol-4-yl)amino]pyrimidin-4-yl]amino]bicyclo[2.2.1]hept-5-ene-2-carboxamide

> <PUBCHEM_IUPAC_INCHI>
InChI=1S/C16H18BrN7O/c1-24-7-10(5-20-24)21-16-19-6-11(17)15(23-16)22-13-9-3-2-8(4-9)12(13)14(18)25/h2-3,5-9,12-13H,4H2,1H3,(H2,18,25)(H2,19,21,22,23)/t8-,9+,12+,13-/m1/s1

> <PUBCHEM_IUPAC_INCHIKEY>
GEATXDJAPAHPTP-FIDNZITISA-N

> <PUBCHEM_XLOGP3_AA>
1.8

> <PUBCHEM_EXACT_MASS>
403.07562

> <PUBCHEM_MOLECULAR_FORMULA>
C16H18BrN7O

> <PUBCHEM_MOLECULAR_WEIGHT>
404.26

> <PUBCHEM_SMILES>
CN1C=C(C=N1)NC2=NC=C(C(=N2)N[C@@H]3[C@@H]4C[C@H]([C@@H]3C(=O)N)C=C4)Br

> <PUBCHEM_OPENEYE_CAN_SMILES>
CN1C=C(C=N1)NC2=NC=C(C(=N2)NC3C4CC(C3C(=O)N)C=C4)Br

> <PUBCHEM_OPENEYE_ISO_SMILES>
CN1C=C(C=N1)NC2=NC=C(C(=N2)N[C@@H]3[C@@H]4C[C@H]([C@@H]3C(=O)N)C=C4)Br

> <PUBCHEM_CACTVS_TPSA>
111

> <PUBCHEM_MONOISOTOPIC_WEIGHT>
403.07562

> <PUBCHEM_TOTAL_CHARGE>
0

> <PUBCHEM_HEAVY_ATOM_COUNT>
25

> <PUBCHEM_ATOM_DEF_STEREO_COUNT>
4

> <PUBCHEM_ATOM_UDEF_STEREO_COUNT>
0

> <PUBCHEM_BOND_DEF_STEREO_COUNT>
0

> <PUBCHEM_BOND_UDEF_STEREO_COUNT>
0

> <PUBCHEM_ISOTOPIC_ATOM_COUNT>
0

> <PUBCHEM_COMPONENT_COUNT>
1

> <PUBCHEM_CACTVS_TAUTO_COUNT>
-1

> <PUBCHEM_COORDINATE_TYPE>
1
5
255

> <PUBCHEM_BONDANNOTATIONS>
10  26  5
11  27  6
13  17  5
18  19  8
19  21  8
22  23  8
22  24  8
12  3  5
5  18  8
5  20  8
6  20  8
6  21  8
8  23  8
8  9  8
9  24  8

$$$$
