46872619
  -OEChem-03202503012D

 44 46  0     0  0  0  0  0  0999 V2000
    4.5981   -4.7585    0.0000 Cl  0  0  0  0  0  0  0  0  0  0  0  0
    2.8660   -5.7585    0.0000 Cl  0  0  0  0  0  0  0  0  0  0  0  0
    6.6888    5.4486    0.0000 O   0  0  0  0  0  0  0  0  0  0  0  0
    7.5549    3.9486    0.0000 O   0  0  0  0  0  0  0  0  0  0  0  0
    3.7320   -1.2586    0.0000 O   0  0  0  0  0  0  0  0  0  0  0  0
    4.5981    3.2414    0.0000 N   0  0  0  0  0  0  0  0  0  0  0  0
    5.8228    3.9486    0.0000 C   0  0  0  0  0  0  0  0  0  0  0  0
    5.5640    2.9826    0.0000 C   0  0  0  0  0  0  0  0  0  0  0  0
    4.8569    4.2074    0.0000 C   0  0  0  0  0  0  0  0  0  0  0  0
    3.7320    2.7414    0.0000 C   0  0  0  0  0  0  0  0  0  0  0  0
    6.6888    4.4486    0.0000 C   0  0  0  0  0  0  0  0  0  0  0  0
    3.7320    1.7414    0.0000 C   0  0  0  0  0  0  0  0  0  0  0  0
    2.8660    1.2414    0.0000 C   0  0  0  0  0  0  0  0  0  0  0  0
    4.5981    1.2414    0.0000 C   0  0  0  0  0  0  0  0  0  0  0  0
    2.8660    0.2414    0.0000 C   0  0  0  0  0  0  0  0  0  0  0  0
    4.5981    0.2414    0.0000 C   0  0  0  0  0  0  0  0  0  0  0  0
    2.0000    1.7414    0.0000 C   0  0  0  0  0  0  0  0  0  0  0  0
    3.7320   -0.2586    0.0000 C   0  0  0  0  0  0  0  0  0  0  0  0
    2.8660   -1.7586    0.0000 C   0  0  0  0  0  0  0  0  0  0  0  0
    2.8660   -2.7586    0.0000 C   0  0  0  0  0  0  0  0  0  0  0  0
    3.7320   -3.2586    0.0000 C   0  0  0  0  0  0  0  0  0  0  0  0
    2.0000   -3.2586    0.0000 C   0  0  0  0  0  0  0  0  0  0  0  0
    3.7320   -4.2585    0.0000 C   0  0  0  0  0  0  0  0  0  0  0  0
    2.0000   -4.2585    0.0000 C   0  0  0  0  0  0  0  0  0  0  0  0
    2.8660   -4.7585    0.0000 C   0  0  0  0  0  0  0  0  0  0  0  0
    6.3147    3.5711    0.0000 H   0  0  0  0  0  0  0  0  0  0  0  0
    5.4035    2.3838    0.0000 H   0  0  0  0  0  0  0  0  0  0  0  0
    6.1629    2.8222    0.0000 H   0  0  0  0  0  0  0  0  0  0  0  0
    5.0174    4.8062    0.0000 H   0  0  0  0  0  0  0  0  0  0  0  0
    4.2580    4.3678    0.0000 H   0  0  0  0  0  0  0  0  0  0  0  0
    3.5200    3.3241    0.0000 H   0  0  0  0  0  0  0  0  0  0  0  0
    3.1215    2.6338    0.0000 H   0  0  0  0  0  0  0  0  0  0  0  0
    5.1350    1.5514    0.0000 H   0  0  0  0  0  0  0  0  0  0  0  0
    2.3291   -0.0686    0.0000 H   0  0  0  0  0  0  0  0  0  0  0  0
    7.2258    5.7585    0.0000 H   0  0  0  0  0  0  0  0  0  0  0  0
    5.1350   -0.0686    0.0000 H   0  0  0  0  0  0  0  0  0  0  0  0
    2.3100    2.2784    0.0000 H   0  0  0  0  0  0  0  0  0  0  0  0
    1.4631    2.0514    0.0000 H   0  0  0  0  0  0  0  0  0  0  0  0
    1.6900    1.2045    0.0000 H   0  0  0  0  0  0  0  0  0  0  0  0
    2.6540   -1.1759    0.0000 H   0  0  0  0  0  0  0  0  0  0  0  0
    2.2554   -1.8662    0.0000 H   0  0  0  0  0  0  0  0  0  0  0  0
    4.2690   -2.9486    0.0000 H   0  0  0  0  0  0  0  0  0  0  0  0
    1.4631   -2.9486    0.0000 H   0  0  0  0  0  0  0  0  0  0  0  0
    1.4631   -4.5686    0.0000 H   0  0  0  0  0  0  0  0  0  0  0  0
  1 23  1  0  0  0  0
  2 25  1  0  0  0  0
  3 11  1  0  0  0  0
  3 35  1  0  0  0  0
  4 11  2  0  0  0  0
  5 18  1  0  0  0  0
  5 19  1  0  0  0  0
  6  8  1  0  0  0  0
  6  9  1  0  0  0  0
  6 10  1  0  0  0  0
  7  8  1  0  0  0  0
  7  9  1  0  0  0  0
  7 11  1  0  0  0  0
  7 26  1  0  0  0  0
  8 27  1  0  0  0  0
  8 28  1  0  0  0  0
  9 29  1  0  0  0  0
  9 30  1  0  0  0  0
 10 12  1  0  0  0  0
 10 31  1  0  0  0  0
 10 32  1  0  0  0  0
 12 13  2  0  0  0  0
 12 14  1  0  0  0  0
 13 15  1  0  0  0  0
 13 17  1  0  0  0  0
 14 16  2  0  0  0  0
 14 33  1  0  0  0  0
 15 18  2  0  0  0  0
 15 34  1  0  0  0  0
 16 18  1  0  0  0  0
 16 36  1  0  0  0  0
 17 37  1  0  0  0  0
 17 38  1  0  0  0  0
 17 39  1  0  0  0  0
 19 20  1  0  0  0  0
 19 40  1  0  0  0  0
 19 41  1  0  0  0  0
 20 21  2  0  0  0  0
 20 22  1  0  0  0  0
 21 23  1  0  0  0  0
 21 42  1  0  0  0  0
 22 24  2  0  0  0  0
 22 43  1  0  0  0  0
 23 25  2  0  0  0  0
 24 25  1  0  0  0  0
 24 44  1  0  0  0  0
M  END
> <PUBCHEM_COMPOUND_CID>
46872619

> <PUBCHEM_COMPOUND_CANONICALIZED>
1

> <PUBCHEM_CACTVS_COMPLEXITY>
458

> <PUBCHEM_CACTVS_HBOND_ACCEPTOR>
4

> <PUBCHEM_CACTVS_HBOND_DONOR>
1

> <PUBCHEM_CACTVS_ROTATABLE_BOND>
6

> <PUBCHEM_CACTVS_SUBSKEYS>
AAADceB6MAAGAAAAAAAAAAAAAABYAAAAAAAwYAAAAAAAAAABQAAAHgIACAAADQbhmCYyDoMABgCIAiDSCACCCAAgJQAIikEODogMJiqFsxuGeCjmwBGIqAeQ0LIOpAABIAAQAARIAAJAACAACAAAAAAAAA==

> <PUBCHEM_IUPAC_OPENEYE_NAME>
1-[[4-[(3,4-dichlorophenyl)methoxy]-2-methyl-phenyl]methyl]azetidine-3-carboxylic acid

> <PUBCHEM_IUPAC_CAS_NAME>
1-[[4-[(3,4-dichlorophenyl)methoxy]-2-methylphenyl]methyl]-3-azetidinecarboxylic acid

> <PUBCHEM_IUPAC_NAME_MARKUP>
1-[[4-[(3,4-dichlorophenyl)methoxy]-2-methylphenyl]methyl]azetidine-3-carboxylic acid

> <PUBCHEM_IUPAC_NAME>
1-[[4-[(3,4-dichlorophenyl)methoxy]-2-methylphenyl]methyl]azetidine-3-carboxylic acid

> <PUBCHEM_IUPAC_SYSTEMATIC_NAME>
1-[[4-[(3,4-dichlorophenyl)methoxy]-2-methyl-phenyl]methyl]azetidine-3-carboxylic acid

> <PUBCHEM_IUPAC_TRADITIONAL_NAME>
1-[4-(3,4-dichlorobenzyl)oxy-2-methyl-benzyl]azetidine-3-carboxylic acid

> <PUBCHEM_IUPAC_INCHI>
InChI=1S/C19H19Cl2NO3/c1-12-6-16(25-11-13-2-5-17(20)18(21)7-13)4-3-14(12)8-22-9-15(10-22)19(23)24/h2-7,15H,8-11H2,1H3,(H,23,24)

> <PUBCHEM_IUPAC_INCHIKEY>
XNKYXYWPDUHBSC-UHFFFAOYSA-N

> <PUBCHEM_XLOGP3_AA>
1.9

> <PUBCHEM_EXACT_MASS>
379.0741989

> <PUBCHEM_MOLECULAR_FORMULA>
C19H19Cl2NO3

> <PUBCHEM_MOLECULAR_WEIGHT>
380.3

> <PUBCHEM_SMILES>
CC1=C(C=CC(=C1)OCC2=CC(=C(C=C2)Cl)Cl)CN3CC(C3)C(=O)O

> <PUBCHEM_OPENEYE_CAN_SMILES>
CC1=C(C=CC(=C1)OCC2=CC(=C(C=C2)Cl)Cl)CN3CC(C3)C(=O)O

> <PUBCHEM_OPENEYE_ISO_SMILES>
CC1=C(C=CC(=C1)OCC2=CC(=C(C=C2)Cl)Cl)CN3CC(C3)C(=O)O

> <PUBCHEM_CACTVS_TPSA>
49.8

> <PUBCHEM_MONOISOTOPIC_WEIGHT>
379.0741989

> <PUBCHEM_TOTAL_CHARGE>
0

> <PUBCHEM_HEAVY_ATOM_COUNT>
25

> <PUBCHEM_ATOM_DEF_STEREO_COUNT>
0

> <PUBCHEM_ATOM_UDEF_STEREO_COUNT>
0

> <PUBCHEM_BOND_DEF_STEREO_COUNT>
0

> <PUBCHEM_BOND_UDEF_STEREO_COUNT>
0

> <PUBCHEM_ISOTOPIC_ATOM_COUNT>
0

> <PUBCHEM_COMPONENT_COUNT>
1

> <PUBCHEM_CACTVS_TAUTO_COUNT>
-1

> <PUBCHEM_COORDINATE_TYPE>
1
5
255

> <PUBCHEM_BONDANNOTATIONS>
12  13  8
12  14  8
13  15  8
14  16  8
15  18  8
16  18  8
20  21  8
20  22  8
21  23  8
22  24  8
23  25  8
24  25  8

$$$$
