46866604
  -OEChem-03192523202D

 91 97  0     1  0  0  0  0  0999 V2000
   14.4277   -4.3120    0.0000 O   0  0  0  0  0  0  0  0  0  0  0  0
   17.0000    3.1392    0.0000 O   0  0  0  0  0  0  0  0  0  0  0  0
    7.0000    4.8712    0.0000 O   0  0  0  0  0  0  0  0  0  0  0  0
   10.0000    1.4071    0.0000 O   0  0  0  0  0  0  0  0  0  0  0  0
   16.0000   -2.0570    0.0000 N   0  0  0  0  0  0  0  0  0  0  0  0
   16.0000   -0.3250    0.0000 N   0  0  0  0  0  0  0  0  0  0  0  0
   14.5000   -1.1910    0.0000 N   0  0  0  0  0  0  0  0  0  0  0  0
   14.5000    0.5411    0.0000 N   0  0  0  0  0  0  0  0  0  0  0  0
    3.5000    4.0052    0.0000 N   0  0  0  0  0  0  0  0  0  0  0  0
    5.5000    4.0052    0.0000 N   0  0  0  0  0  0  0  0  0  0  0  0
   10.0000   -0.3250    0.0000 N   0  0  0  0  0  0  0  0  0  0  0  0
    8.5000    0.5411    0.0000 N   0  0  0  0  0  0  0  0  0  0  0  0
   16.4778   -4.0055    0.0000 C   0  0  3  0  0  0  0  0  0  0  0  0
   16.7366   -3.0396    0.0000 C   0  0  3  0  0  0  0  0  0  0  0  0
   17.8767   -4.5144    0.0000 C   0  0  0  0  0  0  0  0  0  0  0  0
   18.1356   -3.5484    0.0000 C   0  0  0  0  0  0  0  0  0  0  0  0
   15.2568   -4.8712    0.0000 C   0  0  0  0  0  0  0  0  0  0  0  0
   14.7034   -3.3508    0.0000 C   0  0  0  0  0  0  0  0  0  0  0  0
   15.5000   -1.1910    0.0000 C   0  0  0  0  0  0  0  0  0  0  0  0
   16.0000    1.4071    0.0000 C   0  0  0  0  0  0  0  0  0  0  0  0
   15.5000    0.5411    0.0000 C   0  0  0  0  0  0  0  0  0  0  0  0
   14.0000   -0.3250    0.0000 C   0  0  0  0  0  0  0  0  0  0  0  0
   17.0000    1.4071    0.0000 C   0  0  0  0  0  0  0  0  0  0  0  0
   15.5000    2.2731    0.0000 C   0  0  0  0  0  0  0  0  0  0  0  0
   17.5000    2.2731    0.0000 C   0  0  0  0  0  0  0  0  0  0  0  0
   16.0000    3.1392    0.0000 C   0  0  0  0  0  0  0  0  0  0  0  0
    4.0000    4.8712    0.0000 C   0  0  0  0  0  0  0  0  0  0  0  0
    4.0000    3.1392    0.0000 C   0  0  0  0  0  0  0  0  0  0  0  0
   13.0000   -0.3250    0.0000 C   0  0  0  0  0  0  0  0  0  0  0  0
    2.5000    4.0052    0.0000 C   0  0  0  0  0  0  0  0  0  0  0  0
    5.0000    4.8712    0.0000 C   0  0  0  0  0  0  0  0  0  0  0  0
    5.0000    3.1392    0.0000 C   0  0  0  0  0  0  0  0  0  0  0  0
    2.0000    4.8712    0.0000 C   0  0  0  0  0  0  0  0  0  0  0  0
    2.0000    3.1392    0.0000 C   0  0  0  0  0  0  0  0  0  0  0  0
   12.5000   -1.1910    0.0000 C   0  0  0  0  0  0  0  0  0  0  0  0
   12.5000    0.5411    0.0000 C   0  0  0  0  0  0  0  0  0  0  0  0
    6.5000    4.0052    0.0000 C   0  0  0  0  0  0  0  0  0  0  0  0
   11.5000   -1.1910    0.0000 C   0  0  0  0  0  0  0  0  0  0  0  0
   11.5000    0.5411    0.0000 C   0  0  0  0  0  0  0  0  0  0  0  0
    7.0000    3.1392    0.0000 C   0  0  0  0  0  0  0  0  0  0  0  0
   11.0000   -0.3250    0.0000 C   0  0  0  0  0  0  0  0  0  0  0  0
    8.0000    3.1392    0.0000 C   0  0  0  0  0  0  0  0  0  0  0  0
    6.5000    2.2731    0.0000 C   0  0  0  0  0  0  0  0  0  0  0  0
    8.5000    2.2731    0.0000 C   0  0  0  0  0  0  0  0  0  0  0  0
    7.0000    1.4071    0.0000 C   0  0  0  0  0  0  0  0  0  0  0  0
    8.0000    1.4071    0.0000 C   0  0  0  0  0  0  0  0  0  0  0  0
    9.5000    0.5411    0.0000 C   0  0  0  0  0  0  0  0  0  0  0  0
   16.5606   -4.6200    0.0000 H   0  0  0  0  0  0  0  0  0  0  0  0
   17.1060   -2.5416    0.0000 H   0  0  0  0  0  0  0  0  0  0  0  0
   17.6818   -5.1029    0.0000 H   0  0  0  0  0  0  0  0  0  0  0  0
   18.4707   -4.6921    0.0000 H   0  0  0  0  0  0  0  0  0  0  0  0
   18.7295   -3.7262    0.0000 H   0  0  0  0  0  0  0  0  0  0  0  0
   18.3305   -2.9599    0.0000 H   0  0  0  0  0  0  0  0  0  0  0  0
   14.8509   -5.3399    0.0000 H   0  0  0  0  0  0  0  0  0  0  0  0
   15.6734   -5.3303    0.0000 H   0  0  0  0  0  0  0  0  0  0  0  0
   14.6983   -2.7308    0.0000 H   0  0  0  0  0  0  0  0  0  0  0  0
   14.0891   -3.2670    0.0000 H   0  0  0  0  0  0  0  0  0  0  0  0
   15.3800    1.4071    0.0000 H   0  0  0  0  0  0  0  0  0  0  0  0
   16.8923    0.7965    0.0000 H   0  0  0  0  0  0  0  0  0  0  0  0
   17.5826    1.1950    0.0000 H   0  0  0  0  0  0  0  0  0  0  0  0
   15.0251    2.6716    0.0000 H   0  0  0  0  0  0  0  0  0  0  0  0
   15.0251    1.8746    0.0000 H   0  0  0  0  0  0  0  0  0  0  0  0
   17.9749    1.8746    0.0000 H   0  0  0  0  0  0  0  0  0  0  0  0
   17.9749    2.6716    0.0000 H   0  0  0  0  0  0  0  0  0  0  0  0
   16.1077    3.7497    0.0000 H   0  0  0  0  0  0  0  0  0  0  0  0
   15.4174    3.3512    0.0000 H   0  0  0  0  0  0  0  0  0  0  0  0
    4.1077    5.4818    0.0000 H   0  0  0  0  0  0  0  0  0  0  0  0
    3.4174    5.0832    0.0000 H   0  0  0  0  0  0  0  0  0  0  0  0
    3.4174    2.9271    0.0000 H   0  0  0  0  0  0  0  0  0  0  0  0
    4.1077    2.5286    0.0000 H   0  0  0  0  0  0  0  0  0  0  0  0
    1.8800    4.0052    0.0000 H   0  0  0  0  0  0  0  0  0  0  0  0
    5.5826    5.0832    0.0000 H   0  0  0  0  0  0  0  0  0  0  0  0
    4.8923    5.4818    0.0000 H   0  0  0  0  0  0  0  0  0  0  0  0
    4.8923    2.5286    0.0000 H   0  0  0  0  0  0  0  0  0  0  0  0
    5.5826    2.9271    0.0000 H   0  0  0  0  0  0  0  0  0  0  0  0
    2.5369    5.1812    0.0000 H   0  0  0  0  0  0  0  0  0  0  0  0
    1.6900    5.4081    0.0000 H   0  0  0  0  0  0  0  0  0  0  0  0
    1.4631    4.5612    0.0000 H   0  0  0  0  0  0  0  0  0  0  0  0
    1.4631    3.4492    0.0000 H   0  0  0  0  0  0  0  0  0  0  0  0
    1.6900    2.6022    0.0000 H   0  0  0  0  0  0  0  0  0  0  0  0
    2.5369    2.8292    0.0000 H   0  0  0  0  0  0  0  0  0  0  0  0
   12.8100   -1.7279    0.0000 H   0  0  0  0  0  0  0  0  0  0  0  0
   12.8100    1.0780    0.0000 H   0  0  0  0  0  0  0  0  0  0  0  0
   11.1900   -1.7279    0.0000 H   0  0  0  0  0  0  0  0  0  0  0  0
   11.1900    1.0780    0.0000 H   0  0  0  0  0  0  0  0  0  0  0  0
    8.3100    3.6761    0.0000 H   0  0  0  0  0  0  0  0  0  0  0  0
    5.8800    2.2731    0.0000 H   0  0  0  0  0  0  0  0  0  0  0  0
    9.6900   -0.8619    0.0000 H   0  0  0  0  0  0  0  0  0  0  0  0
    9.1200    2.2731    0.0000 H   0  0  0  0  0  0  0  0  0  0  0  0
    6.6900    0.8702    0.0000 H   0  0  0  0  0  0  0  0  0  0  0  0
    8.1900    0.0041    0.0000 H   0  0  0  0  0  0  0  0  0  0  0  0
  1 17  1  0  0  0  0
  1 18  1  0  0  0  0
  2 25  1  0  0  0  0
  2 26  1  0  0  0  0
  3 37  2  0  0  0  0
  4 47  2  0  0  0  0
  5 13  1  0  0  0  0
  5 14  1  0  0  0  0
  5 19  1  0  0  0  0
  6 19  1  0  0  0  0
  6 21  2  0  0  0  0
  7 19  2  0  0  0  0
  7 22  1  0  0  0  0
  8 21  1  0  0  0  0
  8 22  2  0  0  0  0
  9 27  1  0  0  0  0
  9 28  1  0  0  0  0
  9 30  1  0  0  0  0
 10 31  1  0  0  0  0
 10 32  1  0  0  0  0
 10 37  1  0  0  0  0
 11 41  1  0  0  0  0
 11 47  1  0  0  0  0
 11 88  1  0  0  0  0
 12 46  1  0  0  0  0
 12 47  1  0  0  0  0
 12 91  1  0  0  0  0
 13 15  1  0  0  0  0
 13 17  1  0  0  0  0
 13 48  1  0  0  0  0
 14 16  1  0  0  0  0
 14 18  1  0  0  0  0
 14 49  1  0  0  0  0
 15 16  1  0  0  0  0
 15 50  1  0  0  0  0
 15 51  1  0  0  0  0
 16 52  1  0  0  0  0
 16 53  1  0  0  0  0
 17 54  1  0  0  0  0
 17 55  1  0  0  0  0
 18 56  1  0  0  0  0
 18 57  1  0  0  0  0
 20 21  1  0  0  0  0
 20 23  1  0  0  0  0
 20 24  1  0  0  0  0
 20 58  1  0  0  0  0
 22 29  1  0  0  0  0
 23 25  1  0  0  0  0
 23 59  1  0  0  0  0
 23 60  1  0  0  0  0
 24 26  1  0  0  0  0
 24 61  1  0  0  0  0
 24 62  1  0  0  0  0
 25 63  1  0  0  0  0
 25 64  1  0  0  0  0
 26 65  1  0  0  0  0
 26 66  1  0  0  0  0
 27 31  1  0  0  0  0
 27 67  1  0  0  0  0
 27 68  1  0  0  0  0
 28 32  1  0  0  0  0
 28 69  1  0  0  0  0
 28 70  1  0  0  0  0
 29 35  2  0  0  0  0
 29 36  1  0  0  0  0
 30 33  1  0  0  0  0
 30 34  1  0  0  0  0
 30 71  1  0  0  0  0
 31 72  1  0  0  0  0
 31 73  1  0  0  0  0
 32 74  1  0  0  0  0
 32 75  1  0  0  0  0
 33 76  1  0  0  0  0
 33 77  1  0  0  0  0
 33 78  1  0  0  0  0
 34 79  1  0  0  0  0
 34 80  1  0  0  0  0
 34 81  1  0  0  0  0
 35 38  1  0  0  0  0
 35 82  1  0  0  0  0
 36 39  2  0  0  0  0
 36 83  1  0  0  0  0
 37 40  1  0  0  0  0
 38 41  2  0  0  0  0
 38 84  1  0  0  0  0
 39 41  1  0  0  0  0
 39 85  1  0  0  0  0
 40 42  2  0  0  0  0
 40 43  1  0  0  0  0
 42 44  1  0  0  0  0
 42 86  1  0  0  0  0
 43 45  2  0  0  0  0
 43 87  1  0  0  0  0
 44 46  2  0  0  0  0
 44 89  1  0  0  0  0
 45 46  1  0  0  0  0
 45 90  1  0  0  0  0
M  END
> <PUBCHEM_COMPOUND_CID>
46866604

> <PUBCHEM_COMPOUND_CANONICALIZED>
1

> <PUBCHEM_CACTVS_COMPLEXITY>
1020

> <PUBCHEM_CACTVS_HBOND_ACCEPTOR>
9

> <PUBCHEM_CACTVS_HBOND_DONOR>
2

> <PUBCHEM_CACTVS_ROTATABLE_BOND>
7

> <PUBCHEM_CACTVS_SUBSKEYS>
AAADcfB/+AAAAAAAAAAAAAAAAAAAAWAAAAA8eLEiBIAAAAAB0AAAHgAQAAAADSjhmwYz0IfIFACoAidydACCgAklAqAJiCE4ZNiKaLLAnZGXIQhslgLYyae42QOeCAAAAAAAAAAQAAAAAAAAAAAAAAAAAA==

> <PUBCHEM_IUPAC_OPENEYE_NAME>
1-[4-(4-isopropylpiperazine-1-carbonyl)phenyl]-3-[4-[4-(3-oxa-8-azabicyclo[3.2.1]octan-8-yl)-6-tetrahydropyran-4-yl-1,3,5-triazin-2-yl]phenyl]urea

> <PUBCHEM_IUPAC_CAS_NAME>
1-[4-[4-(3-oxa-8-azabicyclo[3.2.1]octan-8-yl)-6-(4-oxanyl)-1,3,5-triazin-2-yl]phenyl]-3-[4-[oxo-(4-propan-2-yl-1-piperazinyl)methyl]phenyl]urea

> <PUBCHEM_IUPAC_NAME_MARKUP>
1-[4-[4-(3-oxa-8-azabicyclo[3.2.1]octan-8-yl)-6-(oxan-4-yl)-1,3,5-triazin-2-yl]phenyl]-3-[4-(4-propan-2-ylpiperazine-1-carbonyl)phenyl]urea

> <PUBCHEM_IUPAC_NAME>
1-[4-[4-(3-oxa-8-azabicyclo[3.2.1]octan-8-yl)-6-(oxan-4-yl)-1,3,5-triazin-2-yl]phenyl]-3-[4-(4-propan-2-ylpiperazine-1-carbonyl)phenyl]urea

> <PUBCHEM_IUPAC_SYSTEMATIC_NAME>
1-[4-[4-(3-oxa-8-azabicyclo[3.2.1]octan-8-yl)-6-(oxan-4-yl)-1,3,5-triazin-2-yl]phenyl]-3-[4-(4-propan-2-ylpiperazin-1-yl)carbonylphenyl]urea

> <PUBCHEM_IUPAC_TRADITIONAL_NAME>
1-[4-(4-isopropylpiperazine-1-carbonyl)phenyl]-3-[4-[4-(3-oxa-8-azabicyclo[3.2.1]octan-8-yl)-6-tetrahydropyran-4-yl-s-triazin-2-yl]phenyl]urea

> <PUBCHEM_IUPAC_INCHI>
InChI=1S/C35H44N8O4/c1-23(2)41-15-17-42(18-16-41)33(44)26-5-9-28(10-6-26)37-35(45)36-27-7-3-24(4-8-27)31-38-32(25-13-19-46-20-14-25)40-34(39-31)43-29-11-12-30(43)22-47-21-29/h3-10,23,25,29-30H,11-22H2,1-2H3,(H2,36,37,45)

> <PUBCHEM_IUPAC_INCHIKEY>
QUBPQLLMMSZSGD-UHFFFAOYSA-N

> <PUBCHEM_XLOGP3_AA>
3.4

> <PUBCHEM_EXACT_MASS>
640.34855191

> <PUBCHEM_MOLECULAR_FORMULA>
C35H44N8O4

> <PUBCHEM_MOLECULAR_WEIGHT>
640.8

> <PUBCHEM_SMILES>
CC(C)N1CCN(CC1)C(=O)C2=CC=C(C=C2)NC(=O)NC3=CC=C(C=C3)C4=NC(=NC(=N4)N5C6CCC5COC6)C7CCOCC7

> <PUBCHEM_OPENEYE_CAN_SMILES>
CC(C)N1CCN(CC1)C(=O)C2=CC=C(C=C2)NC(=O)NC3=CC=C(C=C3)C4=NC(=NC(=N4)N5C6CCC5COC6)C7CCOCC7

> <PUBCHEM_OPENEYE_ISO_SMILES>
CC(C)N1CCN(CC1)C(=O)C2=CC=C(C=C2)NC(=O)NC3=CC=C(C=C3)C4=NC(=NC(=N4)N5C6CCC5COC6)C7CCOCC7

> <PUBCHEM_CACTVS_TPSA>
125

> <PUBCHEM_MONOISOTOPIC_WEIGHT>
640.34855191

> <PUBCHEM_TOTAL_CHARGE>
0

> <PUBCHEM_HEAVY_ATOM_COUNT>
47

> <PUBCHEM_ATOM_DEF_STEREO_COUNT>
0

> <PUBCHEM_ATOM_UDEF_STEREO_COUNT>
2

> <PUBCHEM_BOND_DEF_STEREO_COUNT>
0

> <PUBCHEM_BOND_UDEF_STEREO_COUNT>
0

> <PUBCHEM_ISOTOPIC_ATOM_COUNT>
0

> <PUBCHEM_COMPONENT_COUNT>
1

> <PUBCHEM_CACTVS_TAUTO_COUNT>
-1

> <PUBCHEM_COORDINATE_TYPE>
1
5
255

> <PUBCHEM_BONDANNOTATIONS>
13  15  3
14  16  3
29  35  8
29  36  8
35  38  8
36  39  8
38  41  8
39  41  8
40  42  8
40  43  8
42  44  8
43  45  8
44  46  8
45  46  8
6  19  8
6  21  8
7  19  8
7  22  8
8  21  8
8  22  8

$$$$
