49830476
  -OEChem-03202503122D

 56 60  0     0  0  0  0  0  0999 V2000
   12.2486   -1.3397    0.0000 O   0  0  0  0  0  0  0  0  0  0  0  0
    5.1646   -1.2205    0.0000 N   0  0  0  0  0  0  0  0  0  0  0  0
   10.2916   -3.3616    0.0000 N   0  0  0  0  0  0  0  0  0  0  0  0
   10.6022   -0.8016    0.0000 N   0  0  0  0  0  0  0  0  0  0  0  0
   10.8752   -2.5569    0.0000 N   0  0  0  0  0  0  0  0  0  0  0  0
    6.6428   -0.5624    0.0000 N   0  0  0  0  0  0  0  0  0  0  0  0
    5.6646   -0.3545    0.0000 N   0  0  0  0  0  0  0  0  0  0  0  0
   12.8234    3.2066    0.0000 N   0  0  0  0  0  0  0  0  0  0  0  0
    9.3454   -2.0569    0.0000 C   0  0  0  0  0  0  0  0  0  0  0  0
    9.3454   -3.0569    0.0000 C   0  0  0  0  0  0  0  0  0  0  0  0
    7.6133   -2.0569    0.0000 C   0  0  0  0  0  0  0  0  0  0  0  0
    8.4793   -1.5569    0.0000 C   0  0  0  0  0  0  0  0  0  0  0  0
   10.2916   -1.7522    0.0000 C   0  0  0  0  0  0  0  0  0  0  0  0
    6.7473   -1.5569    0.0000 C   0  0  0  0  0  0  0  0  0  0  0  0
    8.4793   -3.5569    0.0000 C   0  0  0  0  0  0  0  0  0  0  0  0
    7.6133   -3.0569    0.0000 C   0  0  0  0  0  0  0  0  0  0  0  0
    4.1701   -1.3250    0.0000 C   0  0  0  0  0  0  0  0  0  0  0  0
    5.8338   -1.9636    0.0000 C   0  0  0  0  0  0  0  0  0  0  0  0
    3.5823   -0.5160    0.0000 C   0  0  0  0  0  0  0  0  0  0  0  0
   11.8914    0.3551    0.0000 C   0  0  0  0  0  0  0  0  0  0  0  0
   11.5808   -0.5954    0.0000 C   0  0  0  0  0  0  0  0  0  0  0  0
   12.5127    2.2561    0.0000 C   0  0  0  0  0  0  0  0  0  0  0  0
   12.8699    0.5613    0.0000 C   0  0  0  0  0  0  0  0  0  0  0  0
   11.2236    1.0994    0.0000 C   0  0  0  0  0  0  0  0  0  0  0  0
   13.1806    1.5118    0.0000 C   0  0  0  0  0  0  0  0  0  0  0  0
   11.5342    2.0499    0.0000 C   0  0  0  0  0  0  0  0  0  0  0  0
    3.9890    0.3975    0.0000 C   0  0  0  0  0  0  0  0  0  0  0  0
    2.5878   -0.6205    0.0000 C   0  0  0  0  0  0  0  0  0  0  0  0
    3.4013    1.2066    0.0000 C   0  0  0  0  0  0  0  0  0  0  0  0
    2.0000    0.1885    0.0000 C   0  0  0  0  0  0  0  0  0  0  0  0
   13.8019    3.4129    0.0000 C   0  0  0  0  0  0  0  0  0  0  0  0
   12.1556    3.9510    0.0000 C   0  0  0  0  0  0  0  0  0  0  0  0
    2.4067    1.1020    0.0000 C   0  0  0  0  0  0  0  0  0  0  0  0
    8.4793   -0.9369    0.0000 H   0  0  0  0  0  0  0  0  0  0  0  0
    8.4793   -4.1769    0.0000 H   0  0  0  0  0  0  0  0  0  0  0  0
    7.0764   -3.3669    0.0000 H   0  0  0  0  0  0  0  0  0  0  0  0
   10.4842   -3.9510    0.0000 H   0  0  0  0  0  0  0  0  0  0  0  0
    3.6128   -1.5968    0.0000 H   0  0  0  0  0  0  0  0  0  0  0  0
    4.3410   -1.9210    0.0000 H   0  0  0  0  0  0  0  0  0  0  0  0
    5.7048   -2.5701    0.0000 H   0  0  0  0  0  0  0  0  0  0  0  0
   10.1882   -0.3402    0.0000 H   0  0  0  0  0  0  0  0  0  0  0  0
   13.2840    0.0998    0.0000 H   0  0  0  0  0  0  0  0  0  0  0  0
   10.6169    0.9715    0.0000 H   0  0  0  0  0  0  0  0  0  0  0  0
   13.7873    1.6397    0.0000 H   0  0  0  0  0  0  0  0  0  0  0  0
   11.1202    2.5114    0.0000 H   0  0  0  0  0  0  0  0  0  0  0  0
    4.6056    0.4624    0.0000 H   0  0  0  0  0  0  0  0  0  0  0  0
    2.3356   -1.1869    0.0000 H   0  0  0  0  0  0  0  0  0  0  0  0
    3.6534    1.7730    0.0000 H   0  0  0  0  0  0  0  0  0  0  0  0
    1.3834    0.1237    0.0000 H   0  0  0  0  0  0  0  0  0  0  0  0
   13.9298    2.8062    0.0000 H   0  0  0  0  0  0  0  0  0  0  0  0
   14.4086    3.5407    0.0000 H   0  0  0  0  0  0  0  0  0  0  0  0
   13.6741    4.0196    0.0000 H   0  0  0  0  0  0  0  0  0  0  0  0
   12.6170    4.3650    0.0000 H   0  0  0  0  0  0  0  0  0  0  0  0
   11.7415    4.4124    0.0000 H   0  0  0  0  0  0  0  0  0  0  0  0
   11.6941    3.5369    0.0000 H   0  0  0  0  0  0  0  0  0  0  0  0
    2.0423    1.6036    0.0000 H   0  0  0  0  0  0  0  0  0  0  0  0
  1 21  2  0  0  0  0
  2  7  1  0  0  0  0
  2 17  1  0  0  0  0
  2 18  1  0  0  0  0
  3  5  1  0  0  0  0
  3 10  1  0  0  0  0
  3 37  1  0  0  0  0
  4 13  1  0  0  0  0
  4 21  1  0  0  0  0
  4 41  1  0  0  0  0
  5 13  2  0  0  0  0
  6  7  2  0  0  0  0
  6 14  1  0  0  0  0
  8 22  1  0  0  0  0
  8 31  1  0  0  0  0
  8 32  1  0  0  0  0
  9 10  2  0  0  0  0
  9 12  1  0  0  0  0
  9 13  1  0  0  0  0
 10 15  1  0  0  0  0
 11 12  2  0  0  0  0
 11 14  1  0  0  0  0
 11 16  1  0  0  0  0
 12 34  1  0  0  0  0
 14 18  2  0  0  0  0
 15 16  2  0  0  0  0
 15 35  1  0  0  0  0
 16 36  1  0  0  0  0
 17 19  1  0  0  0  0
 17 38  1  0  0  0  0
 17 39  1  0  0  0  0
 18 40  1  0  0  0  0
 19 27  2  0  0  0  0
 19 28  1  0  0  0  0
 20 21  1  0  0  0  0
 20 23  2  0  0  0  0
 20 24  1  0  0  0  0
 22 25  2  0  0  0  0
 22 26  1  0  0  0  0
 23 25  1  0  0  0  0
 23 42  1  0  0  0  0
 24 26  2  0  0  0  0
 24 43  1  0  0  0  0
 25 44  1  0  0  0  0
 26 45  1  0  0  0  0
 27 29  1  0  0  0  0
 27 46  1  0  0  0  0
 28 30  2  0  0  0  0
 28 47  1  0  0  0  0
 29 33  2  0  0  0  0
 29 48  1  0  0  0  0
 30 33  1  0  0  0  0
 30 49  1  0  0  0  0
 31 50  1  0  0  0  0
 31 51  1  0  0  0  0
 31 52  1  0  0  0  0
 32 53  1  0  0  0  0
 32 54  1  0  0  0  0
 32 55  1  0  0  0  0
 33 56  1  0  0  0  0
M  END
> <PUBCHEM_COMPOUND_CID>
49830476

> <PUBCHEM_COMPOUND_CANONICALIZED>
1

> <PUBCHEM_CACTVS_COMPLEXITY>
647

> <PUBCHEM_CACTVS_HBOND_ACCEPTOR>
5

> <PUBCHEM_CACTVS_HBOND_DONOR>
2

> <PUBCHEM_CACTVS_ROTATABLE_BOND>
6

> <PUBCHEM_CACTVS_SUBSKEYS>
AAADceB7oAAAAAAAAAAAAAAAAAAAAWLAAAAwYMAAAAAAAFgB/AAAHgAYAAAADAjBngQ/8PPrAACqAzd3dACSBAY1kgAd+SE4dNiIYLLA3dGUpQhwnQLIyYcYicCeCAACAAACAAAQAAQAAAQAAAAAAAAAAA==

> <PUBCHEM_IUPAC_OPENEYE_NAME>
N-[5-(1-benzyltriazol-4-yl)-1H-indazol-3-yl]-4-(dimethylamino)benzamide

> <PUBCHEM_IUPAC_CAS_NAME>
4-(dimethylamino)-N-[5-[1-(phenylmethyl)-4-triazolyl]-1H-indazol-3-yl]benzamide

> <PUBCHEM_IUPAC_NAME_MARKUP>
<I>N</I>-[5-(1-benzyltriazol-4-yl)-1<I>H</I>-indazol-3-yl]-4-(dimethylamino)benzamide

> <PUBCHEM_IUPAC_NAME>
N-[5-(1-benzyltriazol-4-yl)-1H-indazol-3-yl]-4-(dimethylamino)benzamide

> <PUBCHEM_IUPAC_SYSTEMATIC_NAME>
4-(dimethylamino)-N-[5-[1-(phenylmethyl)-1,2,3-triazol-4-yl]-1H-indazol-3-yl]benzamide

> <PUBCHEM_IUPAC_TRADITIONAL_NAME>
N-[5-(1-benzyltriazol-4-yl)-1H-indazol-3-yl]-4-(dimethylamino)benzamide

> <PUBCHEM_IUPAC_INCHI>
InChI=1S/C25H23N7O/c1-31(2)20-11-8-18(9-12-20)25(33)26-24-21-14-19(10-13-22(21)27-29-24)23-16-32(30-28-23)15-17-6-4-3-5-7-17/h3-14,16H,15H2,1-2H3,(H2,26,27,29,33)

> <PUBCHEM_IUPAC_INCHIKEY>
RWKDVIAVTRRJIR-UHFFFAOYSA-N

> <PUBCHEM_XLOGP3_AA>
3.9

> <PUBCHEM_EXACT_MASS>
437.19640838

> <PUBCHEM_MOLECULAR_FORMULA>
C25H23N7O

> <PUBCHEM_MOLECULAR_WEIGHT>
437.5

> <PUBCHEM_SMILES>
CN(C)C1=CC=C(C=C1)C(=O)NC2=NNC3=C2C=C(C=C3)C4=CN(N=N4)CC5=CC=CC=C5

> <PUBCHEM_OPENEYE_CAN_SMILES>
CN(C)C1=CC=C(C=C1)C(=O)NC2=NNC3=C2C=C(C=C3)C4=CN(N=N4)CC5=CC=CC=C5

> <PUBCHEM_OPENEYE_ISO_SMILES>
CN(C)C1=CC=C(C=C1)C(=O)NC2=NNC3=C2C=C(C=C3)C4=CN(N=N4)CC5=CC=CC=C5

> <PUBCHEM_CACTVS_TPSA>
91.7

> <PUBCHEM_MONOISOTOPIC_WEIGHT>
437.19640838

> <PUBCHEM_TOTAL_CHARGE>
0

> <PUBCHEM_HEAVY_ATOM_COUNT>
33

> <PUBCHEM_ATOM_DEF_STEREO_COUNT>
0

> <PUBCHEM_ATOM_UDEF_STEREO_COUNT>
0

> <PUBCHEM_BOND_DEF_STEREO_COUNT>
0

> <PUBCHEM_BOND_UDEF_STEREO_COUNT>
0

> <PUBCHEM_ISOTOPIC_ATOM_COUNT>
0

> <PUBCHEM_COMPONENT_COUNT>
1

> <PUBCHEM_CACTVS_TAUTO_COUNT>
-1

> <PUBCHEM_COORDINATE_TYPE>
1
5
255

> <PUBCHEM_BONDANNOTATIONS>
10  15  8
11  12  8
11  16  8
14  18  8
15  16  8
19  27  8
19  28  8
2  18  8
2  7  8
20  23  8
20  24  8
22  25  8
22  26  8
23  25  8
24  26  8
27  29  8
28  30  8
29  33  8
3  10  8
3  5  8
30  33  8
5  13  8
6  14  8
6  7  8
9  10  8
9  12  8
9  13  8

$$$$
