5330391
  -OEChem-03202505502D

 49 52  0     0  0  0  0  0  0999 V2000
   16.5731   -0.2500    0.0000 Cl  0  0  0  0  0  0  0  0  0  0  0  0
    7.0468    0.2500    0.0000 N   0  0  0  0  0  0  0  0  0  0  0  0
    3.5827    0.2500    0.0000 N   0  0  0  0  0  0  0  0  0  0  0  0
    3.4782    1.2445    0.0000 N   0  0  0  0  0  0  0  0  0  0  0  0
    8.7788   -1.7500    0.0000 N   0  0  0  0  0  0  0  0  0  0  0  0
   11.3769   -0.2500    0.0000 N   0  0  0  0  0  0  0  0  0  0  0  0
   13.1090   -0.2500    0.0000 N   0  0  0  0  0  0  0  0  0  0  0  0
   11.3769    1.7500    0.0000 N   0  0  0  0  0  0  0  0  0  0  0  0
    5.3147    0.2500    0.0000 C   0  0  0  0  0  0  0  0  0  0  0  0
    6.1808   -0.2500    0.0000 C   0  0  0  0  0  0  0  0  0  0  0  0
    4.4487   -0.2500    0.0000 C   0  0  0  0  0  0  0  0  0  0  0  0
    7.9128   -0.2500    0.0000 C   0  0  0  0  0  0  0  0  0  0  0  0
    8.7788    0.2500    0.0000 C   0  0  0  0  0  0  0  0  0  0  0  0
    9.6448   -0.2500    0.0000 C   0  0  0  0  0  0  0  0  0  0  0  0
    2.6691   -0.1567    0.0000 C   0  0  0  0  0  0  0  0  0  0  0  0
    7.9128   -1.2500    0.0000 C   0  0  0  0  0  0  0  0  0  0  0  0
   10.5109    0.2500    0.0000 C   0  0  0  0  0  0  0  0  0  0  0  0
    2.0000    0.5864    0.0000 C   0  0  0  0  0  0  0  0  0  0  0  0
    9.6448   -1.2500    0.0000 C   0  0  0  0  0  0  0  0  0  0  0  0
    2.5000    1.4524    0.0000 C   0  0  0  0  0  0  0  0  0  0  0  0
   12.2429    0.2500    0.0000 C   0  0  0  0  0  0  0  0  0  0  0  0
   10.5109    1.2500    0.0000 C   0  0  0  0  0  0  0  0  0  0  0  0
   13.9750    0.2500    0.0000 C   0  0  0  0  0  0  0  0  0  0  0  0
   12.2429    1.2500    0.0000 C   0  0  0  0  0  0  0  0  0  0  0  0
   14.8410   -0.2500    0.0000 C   0  0  0  0  0  0  0  0  0  0  0  0
   13.9750    1.2500    0.0000 C   0  0  0  0  0  0  0  0  0  0  0  0
   15.7070    0.2500    0.0000 C   0  0  0  0  0  0  0  0  0  0  0  0
   14.8410    1.7500    0.0000 C   0  0  0  0  0  0  0  0  0  0  0  0
   15.7070    1.2500    0.0000 C   0  0  0  0  0  0  0  0  0  0  0  0
    5.7133    0.7249    0.0000 H   0  0  0  0  0  0  0  0  0  0  0  0
    4.9162    0.7249    0.0000 H   0  0  0  0  0  0  0  0  0  0  0  0
    5.7822   -0.7249    0.0000 H   0  0  0  0  0  0  0  0  0  0  0  0
    6.5793   -0.7249    0.0000 H   0  0  0  0  0  0  0  0  0  0  0  0
    4.0502   -0.7249    0.0000 H   0  0  0  0  0  0  0  0  0  0  0  0
    4.8472   -0.7249    0.0000 H   0  0  0  0  0  0  0  0  0  0  0  0
    7.0468    0.8700    0.0000 H   0  0  0  0  0  0  0  0  0  0  0  0
    8.7788    0.8700    0.0000 H   0  0  0  0  0  0  0  0  0  0  0  0
    2.5402   -0.7632    0.0000 H   0  0  0  0  0  0  0  0  0  0  0  0
    7.3759   -1.5600    0.0000 H   0  0  0  0  0  0  0  0  0  0  0  0
    1.3834    0.5216    0.0000 H   0  0  0  0  0  0  0  0  0  0  0  0
   10.1818   -1.5600    0.0000 H   0  0  0  0  0  0  0  0  0  0  0  0
    2.2478    2.0188    0.0000 H   0  0  0  0  0  0  0  0  0  0  0  0
    9.9739    1.5600    0.0000 H   0  0  0  0  0  0  0  0  0  0  0  0
   13.1090   -0.8700    0.0000 H   0  0  0  0  0  0  0  0  0  0  0  0
   12.7799    1.5600    0.0000 H   0  0  0  0  0  0  0  0  0  0  0  0
   14.8410   -0.8700    0.0000 H   0  0  0  0  0  0  0  0  0  0  0  0
   13.4380    1.5600    0.0000 H   0  0  0  0  0  0  0  0  0  0  0  0
   14.8410    2.3700    0.0000 H   0  0  0  0  0  0  0  0  0  0  0  0
   16.2440    1.5600    0.0000 H   0  0  0  0  0  0  0  0  0  0  0  0
  1 27  1  0  0  0  0
  2 10  1  0  0  0  0
  2 12  1  0  0  0  0
  2 36  1  0  0  0  0
  3  4  1  0  0  0  0
  3 11  1  0  0  0  0
  3 15  1  0  0  0  0
  4 20  2  0  0  0  0
  5 16  1  0  0  0  0
  5 19  2  0  0  0  0
  6 17  1  0  0  0  0
  6 21  2  0  0  0  0
  7 21  1  0  0  0  0
  7 23  1  0  0  0  0
  7 44  1  0  0  0  0
  8 22  1  0  0  0  0
  8 24  2  0  0  0  0
  9 10  1  0  0  0  0
  9 11  1  0  0  0  0
  9 30  1  0  0  0  0
  9 31  1  0  0  0  0
 10 32  1  0  0  0  0
 10 33  1  0  0  0  0
 11 34  1  0  0  0  0
 11 35  1  0  0  0  0
 12 13  1  0  0  0  0
 12 16  2  0  0  0  0
 13 14  2  0  0  0  0
 13 37  1  0  0  0  0
 14 17  1  0  0  0  0
 14 19  1  0  0  0  0
 15 18  2  0  0  0  0
 15 38  1  0  0  0  0
 16 39  1  0  0  0  0
 17 22  2  0  0  0  0
 18 20  1  0  0  0  0
 18 40  1  0  0  0  0
 19 41  1  0  0  0  0
 20 42  1  0  0  0  0
 21 24  1  0  0  0  0
 22 43  1  0  0  0  0
 23 25  2  0  0  0  0
 23 26  1  0  0  0  0
 24 45  1  0  0  0  0
 25 27  1  0  0  0  0
 25 46  1  0  0  0  0
 26 28  2  0  0  0  0
 26 47  1  0  0  0  0
 27 29  2  0  0  0  0
 28 29  1  0  0  0  0
 28 48  1  0  0  0  0
 29 49  1  0  0  0  0
M  END
> <PUBCHEM_COMPOUND_CID>
5330391

> <PUBCHEM_COMPOUND_CANONICALIZED>
1

> <PUBCHEM_CACTVS_COMPLEXITY>
482

> <PUBCHEM_CACTVS_HBOND_ACCEPTOR>
6

> <PUBCHEM_CACTVS_HBOND_DONOR>
2

> <PUBCHEM_CACTVS_ROTATABLE_BOND>
8

> <PUBCHEM_CACTVS_SUBSKEYS>
AAADceB7gAAEAAAAAAAAAAAAAAAAAWAAAAA8WIAAAAAAAAAB/AAAHAIYAAAADArBHiQ98JLIEACiAzZnZACShC0xlyAZ2KA4dpiIYOLB29GUpAhomALIyCcQAAAOAAAAAAIAAAAAAAAABAAAAAAAAAAAAA==

> <PUBCHEM_IUPAC_OPENEYE_NAME>
N-(3-chlorophenyl)-6-[5-(3-pyrazol-1-ylpropylamino)-3-pyridyl]pyrazin-2-amine

> <PUBCHEM_IUPAC_CAS_NAME>
N-(3-chlorophenyl)-6-[5-[3-(1-pyrazolyl)propylamino]-3-pyridinyl]-2-pyrazinamine

> <PUBCHEM_IUPAC_NAME_MARKUP>
<I>N</I>-(3-chlorophenyl)-6-[5-(3-pyrazol-1-ylpropylamino)pyridin-3-yl]pyrazin-2-amine

> <PUBCHEM_IUPAC_NAME>
N-(3-chlorophenyl)-6-[5-(3-pyrazol-1-ylpropylamino)pyridin-3-yl]pyrazin-2-amine

> <PUBCHEM_IUPAC_SYSTEMATIC_NAME>
N-(3-chlorophenyl)-6-[5-(3-pyrazol-1-ylpropylamino)pyridin-3-yl]pyrazin-2-amine

> <PUBCHEM_IUPAC_TRADITIONAL_NAME>
[5-[6-(3-chloroanilino)pyrazin-2-yl]-3-pyridyl]-(3-pyrazol-1-ylpropyl)amine

> <PUBCHEM_IUPAC_INCHI>
InChI=1S/C21H20ClN7/c22-17-4-1-5-18(11-17)27-21-15-24-14-20(28-21)16-10-19(13-23-12-16)25-6-2-8-29-9-3-7-26-29/h1,3-5,7,9-15,25H,2,6,8H2,(H,27,28)

> <PUBCHEM_IUPAC_INCHIKEY>
YHWHYCTUDCULTF-UHFFFAOYSA-N

> <PUBCHEM_XLOGP3_AA>
3.2

> <PUBCHEM_EXACT_MASS>
405.1468714

> <PUBCHEM_MOLECULAR_FORMULA>
C21H20ClN7

> <PUBCHEM_MOLECULAR_WEIGHT>
405.9

> <PUBCHEM_SMILES>
C1=CC(=CC(=C1)Cl)NC2=NC(=CN=C2)C3=CC(=CN=C3)NCCCN4C=CC=N4

> <PUBCHEM_OPENEYE_CAN_SMILES>
C1=CC(=CC(=C1)Cl)NC2=NC(=CN=C2)C3=CC(=CN=C3)NCCCN4C=CC=N4

> <PUBCHEM_OPENEYE_ISO_SMILES>
C1=CC(=CC(=C1)Cl)NC2=NC(=CN=C2)C3=CC(=CN=C3)NCCCN4C=CC=N4

> <PUBCHEM_CACTVS_TPSA>
80.6

> <PUBCHEM_MONOISOTOPIC_WEIGHT>
405.1468714

> <PUBCHEM_TOTAL_CHARGE>
0

> <PUBCHEM_HEAVY_ATOM_COUNT>
29

> <PUBCHEM_ATOM_DEF_STEREO_COUNT>
0

> <PUBCHEM_ATOM_UDEF_STEREO_COUNT>
0

> <PUBCHEM_BOND_DEF_STEREO_COUNT>
0

> <PUBCHEM_BOND_UDEF_STEREO_COUNT>
0

> <PUBCHEM_ISOTOPIC_ATOM_COUNT>
0

> <PUBCHEM_COMPONENT_COUNT>
1

> <PUBCHEM_CACTVS_TAUTO_COUNT>
-1

> <PUBCHEM_COORDINATE_TYPE>
1
5
255

> <PUBCHEM_BONDANNOTATIONS>
12  13  8
12  16  8
13  14  8
14  19  8
15  18  8
17  22  8
18  20  8
21  24  8
23  25  8
23  26  8
25  27  8
26  28  8
27  29  8
28  29  8
3  15  8
3  4  8
4  20  8
5  16  8
5  19  8
6  17  8
6  21  8
8  22  8
8  24  8

$$$$
