49830761
  -OEChem-03202503412D

 35 37  0     0  0  0  0  0  0999 V2000
    2.0000   -1.3106    0.0000 Cl  0  0  0  0  0  0  0  0  0  0  0  0
    9.5878   -0.3876    0.0000 S   0  0  0  0  0  0  0  0  0  0  0  0
    7.5000    1.2874    0.0000 O   0  0  0  0  0  0  0  0  0  0  0  0
    7.5000   -0.4446    0.0000 N   0  0  0  0  0  0  0  0  0  0  0  0
   12.0687    0.4214    0.0000 N   0  0  0  0  0  0  0  0  0  0  0  0
   11.4851   -0.3833    0.0000 N   0  0  0  0  0  0  0  0  0  0  0  0
   10.5388    0.9214    0.0000 C   0  0  0  0  0  0  0  0  0  0  0  0
    6.0000   -1.3106    0.0000 C   0  0  0  0  0  0  0  0  0  0  0  0
    6.5000   -0.4446    0.0000 C   0  0  0  0  0  0  0  0  0  0  0  0
   11.4851    1.2261    0.0000 C   0  0  0  0  0  0  0  0  0  0  0  0
   10.5388   -0.0786    0.0000 C   0  0  0  0  0  0  0  0  0  0  0  0
    9.0000    0.4214    0.0000 C   0  0  0  0  0  0  0  0  0  0  0  0
    9.5878    1.2304    0.0000 C   0  0  0  0  0  0  0  0  0  0  0  0
    5.0000   -1.3106    0.0000 C   0  0  0  0  0  0  0  0  0  0  0  0
    8.0000    0.4214    0.0000 C   0  0  0  0  0  0  0  0  0  0  0  0
   11.7957    2.1767    0.0000 C   0  0  0  0  0  0  0  0  0  0  0  0
    4.5000   -2.1767    0.0000 C   0  0  0  0  0  0  0  0  0  0  0  0
    4.5000   -0.4446    0.0000 C   0  0  0  0  0  0  0  0  0  0  0  0
    3.5000   -2.1767    0.0000 C   0  0  0  0  0  0  0  0  0  0  0  0
    3.5000   -0.4446    0.0000 C   0  0  0  0  0  0  0  0  0  0  0  0
    3.0000   -1.3106    0.0000 C   0  0  0  0  0  0  0  0  0  0  0  0
    5.8923   -1.9212    0.0000 H   0  0  0  0  0  0  0  0  0  0  0  0
    6.5826   -1.5227    0.0000 H   0  0  0  0  0  0  0  0  0  0  0  0
    6.6077    0.1660    0.0000 H   0  0  0  0  0  0  0  0  0  0  0  0
    5.9174   -0.2326    0.0000 H   0  0  0  0  0  0  0  0  0  0  0  0
    9.3962    1.8201    0.0000 H   0  0  0  0  0  0  0  0  0  0  0  0
    7.8100   -0.9815    0.0000 H   0  0  0  0  0  0  0  0  0  0  0  0
   12.6887    0.4214    0.0000 H   0  0  0  0  0  0  0  0  0  0  0  0
   12.3850    1.9840    0.0000 H   0  0  0  0  0  0  0  0  0  0  0  0
   11.9883    2.7660    0.0000 H   0  0  0  0  0  0  0  0  0  0  0  0
   11.2064    2.3693    0.0000 H   0  0  0  0  0  0  0  0  0  0  0  0
    4.8100   -2.7136    0.0000 H   0  0  0  0  0  0  0  0  0  0  0  0
    4.8100    0.0923    0.0000 H   0  0  0  0  0  0  0  0  0  0  0  0
    3.1900   -2.7136    0.0000 H   0  0  0  0  0  0  0  0  0  0  0  0
    3.1900    0.0923    0.0000 H   0  0  0  0  0  0  0  0  0  0  0  0
  1 21  1  0  0  0  0
  2 11  1  0  0  0  0
  2 12  1  0  0  0  0
  3 15  2  0  0  0  0
  4  9  1  0  0  0  0
  4 15  1  0  0  0  0
  4 27  1  0  0  0  0
  5  6  1  0  0  0  0
  5 10  1  0  0  0  0
  5 28  1  0  0  0  0
  6 11  2  0  0  0  0
  7 10  2  0  0  0  0
  7 11  1  0  0  0  0
  7 13  1  0  0  0  0
  8  9  1  0  0  0  0
  8 14  1  0  0  0  0
  8 22  1  0  0  0  0
  8 23  1  0  0  0  0
  9 24  1  0  0  0  0
  9 25  1  0  0  0  0
 10 16  1  0  0  0  0
 12 13  2  0  0  0  0
 12 15  1  0  0  0  0
 13 26  1  0  0  0  0
 14 17  2  0  0  0  0
 14 18  1  0  0  0  0
 16 29  1  0  0  0  0
 16 30  1  0  0  0  0
 16 31  1  0  0  0  0
 17 19  1  0  0  0  0
 17 32  1  0  0  0  0
 18 20  2  0  0  0  0
 18 33  1  0  0  0  0
 19 21  2  0  0  0  0
 19 34  1  0  0  0  0
 20 21  1  0  0  0  0
 20 35  1  0  0  0  0
M  END
> <PUBCHEM_COMPOUND_CID>
49830761

> <PUBCHEM_COMPOUND_CANONICALIZED>
1

> <PUBCHEM_CACTVS_COMPLEXITY>
376

> <PUBCHEM_CACTVS_HBOND_ACCEPTOR>
3

> <PUBCHEM_CACTVS_HBOND_DONOR>
2

> <PUBCHEM_CACTVS_ROTATABLE_BOND>
4

> <PUBCHEM_CACTVS_SUBSKEYS>
AAADccBzIABEAAAAAAAAAAAAAAAAAWJAAAAwAAAAAAAWAAAB/AAAHgYYAAAADArB3iQygdLjAAiuAyVyUACTBIBkDRBYubk4RtgIILKh19GEpQxgngCoyYcYiYAeBAAAAAAAAAAIAAAAAAAAAAAAAAAAAA==

> <PUBCHEM_IUPAC_OPENEYE_NAME>
N-[2-(4-chlorophenyl)ethyl]-3-methyl-2H-thieno[2,3-c]pyrazole-5-carboxamide

> <PUBCHEM_IUPAC_CAS_NAME>
N-[2-(4-chlorophenyl)ethyl]-3-methyl-2H-thieno[2,3-c]pyrazole-5-carboxamide

> <PUBCHEM_IUPAC_NAME_MARKUP>
<I>N</I>-[2-(4-chlorophenyl)ethyl]-3-methyl-2<I>H</I>-thieno[2,3-c]pyrazole-5-carboxamide

> <PUBCHEM_IUPAC_NAME>
N-[2-(4-chlorophenyl)ethyl]-3-methyl-2H-thieno[2,3-c]pyrazole-5-carboxamide

> <PUBCHEM_IUPAC_SYSTEMATIC_NAME>
N-[2-(4-chlorophenyl)ethyl]-3-methyl-2H-thieno[2,3-c]pyrazole-5-carboxamide

> <PUBCHEM_IUPAC_TRADITIONAL_NAME>
N-[2-(4-chlorophenyl)ethyl]-3-methyl-2H-thieno[2,3-c]pyrazole-5-carboxamide

> <PUBCHEM_IUPAC_INCHI>
InChI=1S/C15H14ClN3OS/c1-9-12-8-13(21-15(12)19-18-9)14(20)17-7-6-10-2-4-11(16)5-3-10/h2-5,8H,6-7H2,1H3,(H,17,20)(H,18,19)

> <PUBCHEM_IUPAC_INCHIKEY>
OMKZJNFKGWJFNX-UHFFFAOYSA-N

> <PUBCHEM_XLOGP3_AA>
4.2

> <PUBCHEM_EXACT_MASS>
319.0546109

> <PUBCHEM_MOLECULAR_FORMULA>
C15H14ClN3OS

> <PUBCHEM_MOLECULAR_WEIGHT>
319.8

> <PUBCHEM_SMILES>
CC1=C2C=C(SC2=NN1)C(=O)NCCC3=CC=C(C=C3)Cl

> <PUBCHEM_OPENEYE_CAN_SMILES>
CC1=C2C=C(SC2=NN1)C(=O)NCCC3=CC=C(C=C3)Cl

> <PUBCHEM_OPENEYE_ISO_SMILES>
CC1=C2C=C(SC2=NN1)C(=O)NCCC3=CC=C(C=C3)Cl

> <PUBCHEM_CACTVS_TPSA>
86

> <PUBCHEM_MONOISOTOPIC_WEIGHT>
319.0546109

> <PUBCHEM_TOTAL_CHARGE>
0

> <PUBCHEM_HEAVY_ATOM_COUNT>
21

> <PUBCHEM_ATOM_DEF_STEREO_COUNT>
0

> <PUBCHEM_ATOM_UDEF_STEREO_COUNT>
0

> <PUBCHEM_BOND_DEF_STEREO_COUNT>
0

> <PUBCHEM_BOND_UDEF_STEREO_COUNT>
0

> <PUBCHEM_ISOTOPIC_ATOM_COUNT>
0

> <PUBCHEM_COMPONENT_COUNT>
1

> <PUBCHEM_CACTVS_TAUTO_COUNT>
-1

> <PUBCHEM_COORDINATE_TYPE>
1
5
255

> <PUBCHEM_BONDANNOTATIONS>
12  13  8
14  17  8
14  18  8
17  19  8
18  20  8
19  21  8
2  11  8
2  12  8
20  21  8
5  10  8
5  6  8
6  11  8
7  10  8
7  11  8
7  13  8

$$$$
