9914412
  -OEChem-03202504322D

 69 73  0     0  0  0  0  0  0999 V2000
    2.0000    5.7972    0.0000 O   0  0  0  0  0  0  0  0  0  0  0  0
    5.4641    1.7972    0.0000 O   0  0  0  0  0  0  0  0  0  0  0  0
    5.4641   -0.2028    0.0000 O   0  0  0  0  0  0  0  0  0  0  0  0
   11.5020   -4.7672    0.0000 O   0  0  0  0  0  0  0  0  0  0  0  0
    3.7320    4.7972    0.0000 N   0  0  0  0  0  0  0  0  0  0  0  0
    8.9446   -1.2374    0.0000 N   0  0  0  0  0  0  0  0  0  0  0  0
    8.9561    1.8318    0.0000 N   0  0  0  0  0  0  0  0  0  0  0  0
    9.8622    0.2764    0.0000 N   0  0  0  0  0  0  0  0  0  0  0  0
   12.3853   -3.2773    0.0000 N   0  0  0  0  0  0  0  0  0  0  0  0
    2.8660    4.2972    0.0000 C   0  0  0  0  0  0  0  0  0  0  0  0
    3.7320    5.7972    0.0000 C   0  0  0  0  0  0  0  0  0  0  0  0
    4.5981    4.2972    0.0000 C   0  0  0  0  0  0  0  0  0  0  0  0
    2.0000    4.7972    0.0000 C   0  0  0  0  0  0  0  0  0  0  0  0
    2.8660    6.2972    0.0000 C   0  0  0  0  0  0  0  0  0  0  0  0
    4.5981    3.2972    0.0000 C   0  0  0  0  0  0  0  0  0  0  0  0
    5.4641    2.7972    0.0000 C   0  0  0  0  0  0  0  0  0  0  0  0
    6.3301    1.2972    0.0000 C   0  0  0  0  0  0  0  0  0  0  0  0
    6.3301    0.2972    0.0000 C   0  0  0  0  0  0  0  0  0  0  0  0
    7.1962    1.7972    0.0000 C   0  0  0  0  0  0  0  0  0  0  0  0
    8.0622    0.2972    0.0000 C   0  0  0  0  0  0  0  0  0  0  0  0
    8.0622    1.2972    0.0000 C   0  0  0  0  0  0  0  0  0  0  0  0
    7.1962   -0.2028    0.0000 C   0  0  0  0  0  0  0  0  0  0  0  0
    8.9561   -0.2375    0.0000 C   0  0  0  0  0  0  0  0  0  0  0  0
    9.8047   -1.7474    0.0000 C   0  0  0  0  0  0  0  0  0  0  0  0
    9.8622    1.3180    0.0000 C   0  0  0  0  0  0  0  0  0  0  0  0
    9.7932   -2.7473    0.0000 C   0  0  0  0  0  0  0  0  0  0  0  0
   10.6765   -1.2574    0.0000 C   0  0  0  0  0  0  0  0  0  0  0  0
   11.5251   -2.7674    0.0000 C   0  0  0  0  0  0  0  0  0  0  0  0
    5.4641   -1.2028    0.0000 C   0  0  0  0  0  0  0  0  0  0  0  0
   10.6534   -3.2573    0.0000 C   0  0  0  0  0  0  0  0  0  0  0  0
   11.5367   -1.7674    0.0000 C   0  0  0  0  0  0  0  0  0  0  0  0
   12.3737   -4.2773    0.0000 C   0  0  0  0  0  0  0  0  0  0  0  0
   13.2339   -4.7873    0.0000 C   0  0  0  0  0  0  0  0  0  0  0  0
   13.2224   -5.7872    0.0000 C   0  0  0  0  0  0  0  0  0  0  0  0
   14.1057   -4.2973    0.0000 C   0  0  0  0  0  0  0  0  0  0  0  0
   14.0825   -6.2972    0.0000 C   0  0  0  0  0  0  0  0  0  0  0  0
   14.9659   -4.8073    0.0000 C   0  0  0  0  0  0  0  0  0  0  0  0
   14.9543   -5.8072    0.0000 C   0  0  0  0  0  0  0  0  0  0  0  0
    2.4675    3.8222    0.0000 H   0  0  0  0  0  0  0  0  0  0  0  0
    3.2646    3.8222    0.0000 H   0  0  0  0  0  0  0  0  0  0  0  0
    4.3426    5.6895    0.0000 H   0  0  0  0  0  0  0  0  0  0  0  0
    3.9441    6.3798    0.0000 H   0  0  0  0  0  0  0  0  0  0  0  0
    5.2087    4.1895    0.0000 H   0  0  0  0  0  0  0  0  0  0  0  0
    4.8101    4.8798    0.0000 H   0  0  0  0  0  0  0  0  0  0  0  0
    1.3894    4.9048    0.0000 H   0  0  0  0  0  0  0  0  0  0  0  0
    1.7880    4.2146    0.0000 H   0  0  0  0  0  0  0  0  0  0  0  0
    3.2646    6.7721    0.0000 H   0  0  0  0  0  0  0  0  0  0  0  0
    2.4675    6.7721    0.0000 H   0  0  0  0  0  0  0  0  0  0  0  0
    3.9875    3.4048    0.0000 H   0  0  0  0  0  0  0  0  0  0  0  0
    4.3860    2.7146    0.0000 H   0  0  0  0  0  0  0  0  0  0  0  0
    6.0747    2.6895    0.0000 H   0  0  0  0  0  0  0  0  0  0  0  0
    5.6762    3.3798    0.0000 H   0  0  0  0  0  0  0  0  0  0  0  0
    7.1962    2.4172    0.0000 H   0  0  0  0  0  0  0  0  0  0  0  0
    7.1962   -0.8228    0.0000 H   0  0  0  0  0  0  0  0  0  0  0  0
    8.4041   -1.5412    0.0000 H   0  0  0  0  0  0  0  0  0  0  0  0
   10.3979    1.6301    0.0000 H   0  0  0  0  0  0  0  0  0  0  0  0
    9.2527   -3.0511    0.0000 H   0  0  0  0  0  0  0  0  0  0  0  0
   10.6837   -0.6375    0.0000 H   0  0  0  0  0  0  0  0  0  0  0  0
   10.6462   -3.8773    0.0000 H   0  0  0  0  0  0  0  0  0  0  0  0
   12.0772   -1.4637    0.0000 H   0  0  0  0  0  0  0  0  0  0  0  0
    4.8441   -1.2028    0.0000 H   0  0  0  0  0  0  0  0  0  0  0  0
    5.4641   -1.8228    0.0000 H   0  0  0  0  0  0  0  0  0  0  0  0
    6.0841   -1.2028    0.0000 H   0  0  0  0  0  0  0  0  0  0  0  0
   12.9258   -2.9736    0.0000 H   0  0  0  0  0  0  0  0  0  0  0  0
   12.6819   -6.0910    0.0000 H   0  0  0  0  0  0  0  0  0  0  0  0
   14.1128   -3.6774    0.0000 H   0  0  0  0  0  0  0  0  0  0  0  0
   14.0754   -6.9171    0.0000 H   0  0  0  0  0  0  0  0  0  0  0  0
   15.5063   -4.5035    0.0000 H   0  0  0  0  0  0  0  0  0  0  0  0
   15.4876   -6.1234    0.0000 H   0  0  0  0  0  0  0  0  0  0  0  0
  1 13  1  0  0  0  0
  1 14  1  0  0  0  0
  2 16  1  0  0  0  0
  2 17  1  0  0  0  0
  3 18  1  0  0  0  0
  3 29  1  0  0  0  0
  4 32  2  0  0  0  0
  5 10  1  0  0  0  0
  5 11  1  0  0  0  0
  5 12  1  0  0  0  0
  6 23  1  0  0  0  0
  6 24  1  0  0  0  0
  6 55  1  0  0  0  0
  7 21  1  0  0  0  0
  7 25  2  0  0  0  0
  8 23  2  0  0  0  0
  8 25  1  0  0  0  0
  9 28  1  0  0  0  0
  9 32  1  0  0  0  0
  9 64  1  0  0  0  0
 10 13  1  0  0  0  0
 10 39  1  0  0  0  0
 10 40  1  0  0  0  0
 11 14  1  0  0  0  0
 11 41  1  0  0  0  0
 11 42  1  0  0  0  0
 12 15  1  0  0  0  0
 12 43  1  0  0  0  0
 12 44  1  0  0  0  0
 13 45  1  0  0  0  0
 13 46  1  0  0  0  0
 14 47  1  0  0  0  0
 14 48  1  0  0  0  0
 15 16  1  0  0  0  0
 15 49  1  0  0  0  0
 15 50  1  0  0  0  0
 16 51  1  0  0  0  0
 16 52  1  0  0  0  0
 17 18  2  0  0  0  0
 17 19  1  0  0  0  0
 18 22  1  0  0  0  0
 19 21  2  0  0  0  0
 19 53  1  0  0  0  0
 20 21  1  0  0  0  0
 20 22  2  0  0  0  0
 20 23  1  0  0  0  0
 22 54  1  0  0  0  0
 24 26  2  0  0  0  0
 24 27  1  0  0  0  0
 25 56  1  0  0  0  0
 26 30  1  0  0  0  0
 26 57  1  0  0  0  0
 27 31  2  0  0  0  0
 27 58  1  0  0  0  0
 28 30  2  0  0  0  0
 28 31  1  0  0  0  0
 29 61  1  0  0  0  0
 29 62  1  0  0  0  0
 29 63  1  0  0  0  0
 30 59  1  0  0  0  0
 31 60  1  0  0  0  0
 32 33  1  0  0  0  0
 33 34  2  0  0  0  0
 33 35  1  0  0  0  0
 34 36  1  0  0  0  0
 34 65  1  0  0  0  0
 35 37  2  0  0  0  0
 35 66  1  0  0  0  0
 36 38  2  0  0  0  0
 36 67  1  0  0  0  0
 37 38  1  0  0  0  0
 37 68  1  0  0  0  0
 38 69  1  0  0  0  0
M  END
> <PUBCHEM_COMPOUND_CID>
9914412

> <PUBCHEM_COMPOUND_CANONICALIZED>
1

> <PUBCHEM_CACTVS_COMPLEXITY>
709

> <PUBCHEM_CACTVS_HBOND_ACCEPTOR>
8

> <PUBCHEM_CACTVS_HBOND_DONOR>
2

> <PUBCHEM_CACTVS_ROTATABLE_BOND>
10

> <PUBCHEM_CACTVS_SUBSKEYS>
AAADceB7uAAAAAAAAAAAAAAAAAAAAAAAAAA8eMECAAAAAACx9AAAHgAQAAAADAzhngY39vfIFACoAydzdACCiCk1IqAJ2CE+7NiPLvLE/duHPSru1Bva6ae42BOOIECBAgACQABAgQIEAASAAAAAAAAAAA==

> <PUBCHEM_IUPAC_OPENEYE_NAME>
N-[4-[[6-methoxy-7-(3-morpholinopropoxy)quinazolin-4-yl]amino]phenyl]benzamide

> <PUBCHEM_IUPAC_CAS_NAME>
N-[4-[[6-methoxy-7-[3-(4-morpholinyl)propoxy]-4-quinazolinyl]amino]phenyl]benzamide

> <PUBCHEM_IUPAC_NAME_MARKUP>
<I>N</I>-[4-[[6-methoxy-7-(3-morpholin-4-ylpropoxy)quinazolin-4-yl]amino]phenyl]benzamide

> <PUBCHEM_IUPAC_NAME>
N-[4-[[6-methoxy-7-(3-morpholin-4-ylpropoxy)quinazolin-4-yl]amino]phenyl]benzamide

> <PUBCHEM_IUPAC_SYSTEMATIC_NAME>
N-[4-[[6-methoxy-7-(3-morpholin-4-ylpropoxy)quinazolin-4-yl]amino]phenyl]benzamide

> <PUBCHEM_IUPAC_TRADITIONAL_NAME>
N-[4-[[6-methoxy-7-(3-morpholinopropoxy)quinazolin-4-yl]amino]phenyl]benzamide

> <PUBCHEM_IUPAC_INCHI>
InChI=1S/C29H31N5O4/c1-36-26-18-24-25(19-27(26)38-15-5-12-34-13-16-37-17-14-34)30-20-31-28(24)32-22-8-10-23(11-9-22)33-29(35)21-6-3-2-4-7-21/h2-4,6-11,18-20H,5,12-17H2,1H3,(H,33,35)(H,30,31,32)

> <PUBCHEM_IUPAC_INCHIKEY>
OGNYUTNQZVRGMN-UHFFFAOYSA-N

> <PUBCHEM_XLOGP3_AA>
4.2

> <PUBCHEM_EXACT_MASS>
513.23760449

> <PUBCHEM_MOLECULAR_FORMULA>
C29H31N5O4

> <PUBCHEM_MOLECULAR_WEIGHT>
513.6

> <PUBCHEM_SMILES>
COC1=C(C=C2C(=C1)C(=NC=N2)NC3=CC=C(C=C3)NC(=O)C4=CC=CC=C4)OCCCN5CCOCC5

> <PUBCHEM_OPENEYE_CAN_SMILES>
COC1=C(C=C2C(=C1)C(=NC=N2)NC3=CC=C(C=C3)NC(=O)C4=CC=CC=C4)OCCCN5CCOCC5

> <PUBCHEM_OPENEYE_ISO_SMILES>
COC1=C(C=C2C(=C1)C(=NC=N2)NC3=CC=C(C=C3)NC(=O)C4=CC=CC=C4)OCCCN5CCOCC5

> <PUBCHEM_CACTVS_TPSA>
97.8

> <PUBCHEM_MONOISOTOPIC_WEIGHT>
513.23760449

> <PUBCHEM_TOTAL_CHARGE>
0

> <PUBCHEM_HEAVY_ATOM_COUNT>
38

> <PUBCHEM_ATOM_DEF_STEREO_COUNT>
0

> <PUBCHEM_ATOM_UDEF_STEREO_COUNT>
0

> <PUBCHEM_BOND_DEF_STEREO_COUNT>
0

> <PUBCHEM_BOND_UDEF_STEREO_COUNT>
0

> <PUBCHEM_ISOTOPIC_ATOM_COUNT>
0

> <PUBCHEM_COMPONENT_COUNT>
1

> <PUBCHEM_CACTVS_TAUTO_COUNT>
-1

> <PUBCHEM_COORDINATE_TYPE>
1
5
255

> <PUBCHEM_BONDANNOTATIONS>
17  18  8
17  19  8
18  22  8
19  21  8
20  21  8
20  22  8
20  23  8
24  26  8
24  27  8
26  30  8
27  31  8
28  30  8
28  31  8
33  34  8
33  35  8
34  36  8
35  37  8
36  38  8
37  38  8
7  21  8
7  25  8
8  23  8
8  25  8

$$$$
