24905282
  -OEChem-03192523572D

 45 47  0     0  0  0  0  0  0999 V2000
    5.9209    2.7058    0.0000 O   0  0  0  0  0  0  0  0  0  0  0  0
    7.2566    1.2172    0.0000 O   0  0  0  0  0  0  0  0  0  0  0  0
    4.6783   -2.7058    0.0000 N   0  0  0  0  0  0  0  0  0  0  0  0
    5.2619   -1.9010    0.0000 N   0  0  0  0  0  0  0  0  0  0  0  0
    2.8660   -2.9010    0.0000 N   0  0  0  0  0  0  0  0  0  0  0  0
    2.0000   -1.4010    0.0000 N   0  0  0  0  0  0  0  0  0  0  0  0
    2.8660    0.0990    0.0000 N   0  0  0  0  0  0  0  0  0  0  0  0
    4.9889   -3.6563    0.0000 C   0  0  0  0  0  0  0  0  0  0  0  0
    3.7320   -2.4010    0.0000 C   0  0  0  0  0  0  0  0  0  0  0  0
    3.7320   -1.4010    0.0000 C   0  0  0  0  0  0  0  0  0  0  0  0
    4.6783   -1.0963    0.0000 C   0  0  0  0  0  0  0  0  0  0  0  0
    4.9889   -0.1458    0.0000 C   0  0  0  0  0  0  0  0  0  0  0  0
    5.9674   -3.8625    0.0000 C   0  0  0  0  0  0  0  0  0  0  0  0
    4.3211   -4.4006    0.0000 C   0  0  0  0  0  0  0  0  0  0  0  0
    2.8660   -0.9010    0.0000 C   0  0  0  0  0  0  0  0  0  0  0  0
    5.9674    0.0604    0.0000 C   0  0  0  0  0  0  0  0  0  0  0  0
    4.3211    0.5985    0.0000 C   0  0  0  0  0  0  0  0  0  0  0  0
    6.2781    1.0110    0.0000 C   0  0  0  0  0  0  0  0  0  0  0  0
    5.6103    1.7552    0.0000 C   0  0  0  0  0  0  0  0  0  0  0  0
    4.6318    1.5490    0.0000 C   0  0  0  0  0  0  0  0  0  0  0  0
    2.0000   -2.4010    0.0000 C   0  0  0  0  0  0  0  0  0  0  0  0
    5.2531    3.4501    0.0000 C   0  0  0  0  0  0  0  0  0  0  0  0
    7.9244    0.4729    0.0000 C   0  0  0  0  0  0  0  0  0  0  0  0
    5.5637    4.4006    0.0000 C   0  0  0  0  0  0  0  0  0  0  0  0
    5.4030   -3.1948    0.0000 H   0  0  0  0  0  0  0  0  0  0  0  0
    5.8396   -4.4692    0.0000 H   0  0  0  0  0  0  0  0  0  0  0  0
    6.5741   -3.9904    0.0000 H   0  0  0  0  0  0  0  0  0  0  0  0
    6.0953   -3.2558    0.0000 H   0  0  0  0  0  0  0  0  0  0  0  0
    3.8596   -3.9865    0.0000 H   0  0  0  0  0  0  0  0  0  0  0  0
    3.9070   -4.8621    0.0000 H   0  0  0  0  0  0  0  0  0  0  0  0
    4.7826   -4.8147    0.0000 H   0  0  0  0  0  0  0  0  0  0  0  0
    6.3815   -0.4010    0.0000 H   0  0  0  0  0  0  0  0  0  0  0  0
    3.7144    0.4707    0.0000 H   0  0  0  0  0  0  0  0  0  0  0  0
    4.2177    2.0105    0.0000 H   0  0  0  0  0  0  0  0  0  0  0  0
    1.4631   -2.7110    0.0000 H   0  0  0  0  0  0  0  0  0  0  0  0
    2.3291    0.4090    0.0000 H   0  0  0  0  0  0  0  0  0  0  0  0
    3.4030    0.4090    0.0000 H   0  0  0  0  0  0  0  0  0  0  0  0
    4.7062    3.7421    0.0000 H   0  0  0  0  0  0  0  0  0  0  0  0
    4.8705    2.9622    0.0000 H   0  0  0  0  0  0  0  0  0  0  0  0
    7.4630    0.0588    0.0000 H   0  0  0  0  0  0  0  0  0  0  0  0
    8.3385    0.0114    0.0000 H   0  0  0  0  0  0  0  0  0  0  0  0
    8.3859    0.8869    0.0000 H   0  0  0  0  0  0  0  0  0  0  0  0
    6.1531    4.2080    0.0000 H   0  0  0  0  0  0  0  0  0  0  0  0
    5.7564    4.9899    0.0000 H   0  0  0  0  0  0  0  0  0  0  0  0
    4.9744    4.5932    0.0000 H   0  0  0  0  0  0  0  0  0  0  0  0
  1 19  1  0  0  0  0
  1 22  1  0  0  0  0
  2 18  1  0  0  0  0
  2 23  1  0  0  0  0
  3  4  1  0  0  0  0
  3  8  1  0  0  0  0
  3  9  1  0  0  0  0
  4 11  2  0  0  0  0
  5  9  2  0  0  0  0
  5 21  1  0  0  0  0
  6 15  1  0  0  0  0
  6 21  2  0  0  0  0
  7 15  1  0  0  0  0
  7 36  1  0  0  0  0
  7 37  1  0  0  0  0
  8 13  1  0  0  0  0
  8 14  1  0  0  0  0
  8 25  1  0  0  0  0
  9 10  1  0  0  0  0
 10 11  1  0  0  0  0
 10 15  2  0  0  0  0
 11 12  1  0  0  0  0
 12 16  2  0  0  0  0
 12 17  1  0  0  0  0
 13 26  1  0  0  0  0
 13 27  1  0  0  0  0
 13 28  1  0  0  0  0
 14 29  1  0  0  0  0
 14 30  1  0  0  0  0
 14 31  1  0  0  0  0
 16 18  1  0  0  0  0
 16 32  1  0  0  0  0
 17 20  2  0  0  0  0
 17 33  1  0  0  0  0
 18 19  2  0  0  0  0
 19 20  1  0  0  0  0
 20 34  1  0  0  0  0
 21 35  1  0  0  0  0
 22 24  1  0  0  0  0
 22 38  1  0  0  0  0
 22 39  1  0  0  0  0
 23 40  1  0  0  0  0
 23 41  1  0  0  0  0
 23 42  1  0  0  0  0
 24 43  1  0  0  0  0
 24 44  1  0  0  0  0
 24 45  1  0  0  0  0
M  END
> <PUBCHEM_COMPOUND_CID>
24905282

> <PUBCHEM_COMPOUND_CANONICALIZED>
1

> <PUBCHEM_CACTVS_COMPLEXITY>
410

> <PUBCHEM_CACTVS_HBOND_ACCEPTOR>
6

> <PUBCHEM_CACTVS_HBOND_DONOR>
1

> <PUBCHEM_CACTVS_ROTATABLE_BOND>
5

> <PUBCHEM_CACTVS_SUBSKEYS>
AAADceB7sAAAAAAAAAAAAAAAAAAAAWAAAAA8QAAAAAAAAFgB/AAAHgAYAAAADCzhnwY3tt5IFACiAyZjZACSjCsxoKAd2CAuzJiNLqLE+duGvCrsyBPK6Cew0PEOIAABAAAAQABAAAIAAACAAAAAAAAAAA==

> <PUBCHEM_IUPAC_OPENEYE_NAME>
3-(4-ethoxy-3-methoxy-phenyl)-1-isopropyl-pyrazolo[3,4-d]pyrimidin-4-amine

> <PUBCHEM_IUPAC_CAS_NAME>
3-(4-ethoxy-3-methoxyphenyl)-1-propan-2-yl-4-pyrazolo[3,4-d]pyrimidinamine

> <PUBCHEM_IUPAC_NAME_MARKUP>
3-(4-ethoxy-3-methoxyphenyl)-1-propan-2-ylpyrazolo[3,4-d]pyrimidin-4-amine

> <PUBCHEM_IUPAC_NAME>
3-(4-ethoxy-3-methoxyphenyl)-1-propan-2-ylpyrazolo[3,4-d]pyrimidin-4-amine

> <PUBCHEM_IUPAC_SYSTEMATIC_NAME>
3-(4-ethoxy-3-methoxy-phenyl)-1-propan-2-yl-pyrazolo[3,4-d]pyrimidin-4-amine

> <PUBCHEM_IUPAC_TRADITIONAL_NAME>
[3-(4-ethoxy-3-methoxy-phenyl)-1-isopropyl-pyrazolo[3,4-d]pyrimidin-4-yl]amine

> <PUBCHEM_IUPAC_INCHI>
InChI=1S/C17H21N5O2/c1-5-24-12-7-6-11(8-13(12)23-4)15-14-16(18)19-9-20-17(14)22(21-15)10(2)3/h6-10H,5H2,1-4H3,(H2,18,19,20)

> <PUBCHEM_IUPAC_INCHIKEY>
AMERZUAKIAGPBA-UHFFFAOYSA-N

> <PUBCHEM_XLOGP3_AA>
2.5

> <PUBCHEM_EXACT_MASS>
327.16952493

> <PUBCHEM_MOLECULAR_FORMULA>
C17H21N5O2

> <PUBCHEM_MOLECULAR_WEIGHT>
327.4

> <PUBCHEM_SMILES>
CCOC1=C(C=C(C=C1)C2=NN(C3=NC=NC(=C23)N)C(C)C)OC

> <PUBCHEM_OPENEYE_CAN_SMILES>
CCOC1=C(C=C(C=C1)C2=NN(C3=NC=NC(=C23)N)C(C)C)OC

> <PUBCHEM_OPENEYE_ISO_SMILES>
CCOC1=C(C=C(C=C1)C2=NN(C3=NC=NC(=C23)N)C(C)C)OC

> <PUBCHEM_CACTVS_TPSA>
88.1

> <PUBCHEM_MONOISOTOPIC_WEIGHT>
327.16952493

> <PUBCHEM_TOTAL_CHARGE>
0

> <PUBCHEM_HEAVY_ATOM_COUNT>
24

> <PUBCHEM_ATOM_DEF_STEREO_COUNT>
0

> <PUBCHEM_ATOM_UDEF_STEREO_COUNT>
0

> <PUBCHEM_BOND_DEF_STEREO_COUNT>
0

> <PUBCHEM_BOND_UDEF_STEREO_COUNT>
0

> <PUBCHEM_ISOTOPIC_ATOM_COUNT>
0

> <PUBCHEM_COMPONENT_COUNT>
1

> <PUBCHEM_CACTVS_TAUTO_COUNT>
-1

> <PUBCHEM_COORDINATE_TYPE>
1
5
255

> <PUBCHEM_BONDANNOTATIONS>
10  11  8
10  15  8
12  16  8
12  17  8
16  18  8
17  20  8
18  19  8
19  20  8
3  4  8
3  9  8
4  11  8
5  21  8
5  9  8
6  15  8
6  21  8
9  10  8

$$$$
