44575127
  -OEChem-03202506342D

 44 47  0     1  0  0  0  0  0999 V2000
    2.5000   -3.2672    0.0000 S   0  0  0  0  0  0  0  0  0  0  0  0
    8.2715    2.6424    0.0000 O   0  0  0  0  0  0  0  0  0  0  0  0
    5.9396    3.2672    0.0000 O   0  0  0  0  0  0  0  0  0  0  0  0
    7.6467    0.3104    0.0000 N   0  0  0  0  0  0  0  0  0  0  0  0
    5.3147    0.9352    0.0000 N   0  0  0  0  0  0  0  0  0  0  0  0
    5.3147   -2.0648    0.0000 N   0  0  0  0  0  0  0  0  0  0  0  0
    8.6467    0.3104    0.0000 C   0  0  1  0  0  0  0  0  0  0  0  0
    7.1467    1.1764    0.0000 C   0  0  0  0  0  0  0  0  0  0  0  0
    6.1808    1.4352    0.0000 C   0  0  0  0  0  0  0  0  0  0  0  0
    9.1467   -0.5556    0.0000 C   0  0  0  0  0  0  0  0  0  0  0  0
    7.4055    2.1424    0.0000 C   0  0  0  0  0  0  0  0  0  0  0  0
    6.4396    2.4012    0.0000 C   0  0  0  0  0  0  0  0  0  0  0  0
    9.1467    1.1764    0.0000 C   0  0  0  0  0  0  0  0  0  0  0  0
    5.3147   -0.0648    0.0000 C   0  0  0  0  0  0  0  0  0  0  0  0
   10.1467   -0.5556    0.0000 C   0  0  0  0  0  0  0  0  0  0  0  0
    8.6467   -1.4216    0.0000 C   0  0  0  0  0  0  0  0  0  0  0  0
    4.4487   -0.5648    0.0000 C   0  0  0  0  0  0  0  0  0  0  0  0
   10.6467   -1.4216    0.0000 C   0  0  0  0  0  0  0  0  0  0  0  0
    9.1467   -2.2877    0.0000 C   0  0  0  0  0  0  0  0  0  0  0  0
    4.4487   -1.5648    0.0000 C   0  0  0  0  0  0  0  0  0  0  0  0
    6.1808   -0.5648    0.0000 C   0  0  0  0  0  0  0  0  0  0  0  0
   10.1467   -2.2877    0.0000 C   0  0  0  0  0  0  0  0  0  0  0  0
    3.5827   -2.0648    0.0000 C   0  0  0  0  0  0  0  0  0  0  0  0
    6.1808   -1.5648    0.0000 C   0  0  0  0  0  0  0  0  0  0  0  0
    2.6691   -1.6580    0.0000 C   0  0  0  0  0  0  0  0  0  0  0  0
    3.4782   -3.0593    0.0000 C   0  0  0  0  0  0  0  0  0  0  0  0
    2.0000   -2.4012    0.0000 C   0  0  0  0  0  0  0  0  0  0  0  0
    8.3367   -0.2265    0.0000 H   0  0  0  0  0  0  0  0  0  0  0  0
    7.3367   -0.2265    0.0000 H   0  0  0  0  0  0  0  0  0  0  0  0
    9.6836    0.8664    0.0000 H   0  0  0  0  0  0  0  0  0  0  0  0
    9.4567    1.7134    0.0000 H   0  0  0  0  0  0  0  0  0  0  0  0
    8.6097    1.4864    0.0000 H   0  0  0  0  0  0  0  0  0  0  0  0
    4.7778    1.2452    0.0000 H   0  0  0  0  0  0  0  0  0  0  0  0
   10.4567   -0.0187    0.0000 H   0  0  0  0  0  0  0  0  0  0  0  0
    8.0267   -1.4216    0.0000 H   0  0  0  0  0  0  0  0  0  0  0  0
    3.9118   -0.2548    0.0000 H   0  0  0  0  0  0  0  0  0  0  0  0
   11.2667   -1.4216    0.0000 H   0  0  0  0  0  0  0  0  0  0  0  0
    8.8367   -2.8246    0.0000 H   0  0  0  0  0  0  0  0  0  0  0  0
    6.7177   -0.2548    0.0000 H   0  0  0  0  0  0  0  0  0  0  0  0
   10.4567   -2.8246    0.0000 H   0  0  0  0  0  0  0  0  0  0  0  0
    6.7177   -1.8748    0.0000 H   0  0  0  0  0  0  0  0  0  0  0  0
    2.5402   -1.0516    0.0000 H   0  0  0  0  0  0  0  0  0  0  0  0
    3.9389   -3.4741    0.0000 H   0  0  0  0  0  0  0  0  0  0  0  0
    1.3834   -2.3364    0.0000 H   0  0  0  0  0  0  0  0  0  0  0  0
  1 26  1  0  0  0  0
  1 27  1  0  0  0  0
  2 11  2  0  0  0  0
  3 12  2  0  0  0  0
  7  4  1  6  0  0  0
  4  8  1  0  0  0  0
  4 29  1  0  0  0  0
  5  9  1  0  0  0  0
  5 14  1  0  0  0  0
  5 33  1  0  0  0  0
  6 20  2  0  0  0  0
  6 24  1  0  0  0  0
  7 10  1  0  0  0  0
  7 13  1  0  0  0  0
  7 28  1  0  0  0  0
  8  9  2  0  0  0  0
  8 11  1  0  0  0  0
  9 12  1  0  0  0  0
 10 15  2  0  0  0  0
 10 16  1  0  0  0  0
 11 12  1  0  0  0  0
 13 30  1  0  0  0  0
 13 31  1  0  0  0  0
 13 32  1  0  0  0  0
 14 17  2  0  0  0  0
 14 21  1  0  0  0  0
 15 18  1  0  0  0  0
 15 34  1  0  0  0  0
 16 19  2  0  0  0  0
 16 35  1  0  0  0  0
 17 20  1  0  0  0  0
 17 36  1  0  0  0  0
 18 22  2  0  0  0  0
 18 37  1  0  0  0  0
 19 22  1  0  0  0  0
 19 38  1  0  0  0  0
 20 23  1  0  0  0  0
 21 24  2  0  0  0  0
 21 39  1  0  0  0  0
 22 40  1  0  0  0  0
 23 25  1  0  0  0  0
 23 26  2  0  0  0  0
 24 41  1  0  0  0  0
 25 27  2  0  0  0  0
 25 42  1  0  0  0  0
 26 43  1  0  0  0  0
 27 44  1  0  0  0  0
M  END
> <PUBCHEM_COMPOUND_CID>
44575127

> <PUBCHEM_COMPOUND_CANONICALIZED>
1

> <PUBCHEM_CACTVS_COMPLEXITY>
615

> <PUBCHEM_CACTVS_HBOND_ACCEPTOR>
6

> <PUBCHEM_CACTVS_HBOND_DONOR>
2

> <PUBCHEM_CACTVS_ROTATABLE_BOND>
6

> <PUBCHEM_CACTVS_SUBSKEYS>
AAADceB7MABAAAAAAAAAAAAAAABAASAAAAA8QAAAAAAAAAAB8AAAHgQQAAAADCzF3gS+wZLIEAisA7R3RACDgKAxCjBI2Lm4ZNgIIOrg0fGEJAhgkADoyUcQgMAOAAAAAAAAAAAAAAAAAAAAAAAAAAAAAA==

> <PUBCHEM_IUPAC_OPENEYE_NAME>
3-[[(1R)-1-phenylethyl]amino]-4-[[2-(3-thienyl)-4-pyridyl]amino]cyclobut-3-ene-1,2-dione

> <PUBCHEM_IUPAC_CAS_NAME>
3-[[(1R)-1-phenylethyl]amino]-4-[[2-(3-thiophenyl)-4-pyridinyl]amino]cyclobut-3-ene-1,2-dione

> <PUBCHEM_IUPAC_NAME_MARKUP>
3-[[(1<I>R</I>)-1-phenylethyl]amino]-4-[(2-thiophen-3-ylpyridin-4-yl)amino]cyclobut-3-ene-1,2-dione

> <PUBCHEM_IUPAC_NAME>
3-[[(1R)-1-phenylethyl]amino]-4-[(2-thiophen-3-ylpyridin-4-yl)amino]cyclobut-3-ene-1,2-dione

> <PUBCHEM_IUPAC_SYSTEMATIC_NAME>
3-[[(1R)-1-phenylethyl]amino]-4-[(2-thiophen-3-ylpyridin-4-yl)amino]cyclobut-3-ene-1,2-dione

> <PUBCHEM_IUPAC_TRADITIONAL_NAME>
3-[[(1R)-1-phenylethyl]amino]-4-[[2-(3-thienyl)-4-pyridyl]amino]cyclobut-3-ene-1,2-quinone

> <PUBCHEM_IUPAC_INCHI>
InChI=1S/C21H17N3O2S/c1-13(14-5-3-2-4-6-14)23-18-19(21(26)20(18)25)24-16-7-9-22-17(11-16)15-8-10-27-12-15/h2-13,23H,1H3,(H,22,24)/t13-/m1/s1

> <PUBCHEM_IUPAC_INCHIKEY>
IHKOUBVQGUHCQJ-CYBMUJFWSA-N

> <PUBCHEM_XLOGP3_AA>
3.7

> <PUBCHEM_EXACT_MASS>
375.10414797

> <PUBCHEM_MOLECULAR_FORMULA>
C21H17N3O2S

> <PUBCHEM_MOLECULAR_WEIGHT>
375.4

> <PUBCHEM_SMILES>
C[C@H](C1=CC=CC=C1)NC2=C(C(=O)C2=O)NC3=CC(=NC=C3)C4=CSC=C4

> <PUBCHEM_OPENEYE_CAN_SMILES>
CC(C1=CC=CC=C1)NC2=C(C(=O)C2=O)NC3=CC(=NC=C3)C4=CSC=C4

> <PUBCHEM_OPENEYE_ISO_SMILES>
C[C@H](C1=CC=CC=C1)NC2=C(C(=O)C2=O)NC3=CC(=NC=C3)C4=CSC=C4

> <PUBCHEM_CACTVS_TPSA>
99.3

> <PUBCHEM_MONOISOTOPIC_WEIGHT>
375.10414797

> <PUBCHEM_TOTAL_CHARGE>
0

> <PUBCHEM_HEAVY_ATOM_COUNT>
27

> <PUBCHEM_ATOM_DEF_STEREO_COUNT>
1

> <PUBCHEM_ATOM_UDEF_STEREO_COUNT>
0

> <PUBCHEM_BOND_DEF_STEREO_COUNT>
0

> <PUBCHEM_BOND_UDEF_STEREO_COUNT>
0

> <PUBCHEM_ISOTOPIC_ATOM_COUNT>
0

> <PUBCHEM_COMPONENT_COUNT>
1

> <PUBCHEM_CACTVS_TAUTO_COUNT>
-1

> <PUBCHEM_COORDINATE_TYPE>
1
5
255

> <PUBCHEM_BONDANNOTATIONS>
1  26  8
1  27  8
10  15  8
10  16  8
11  12  8
14  17  8
14  21  8
15  18  8
16  19  8
17  20  8
18  22  8
19  22  8
21  24  8
23  25  8
23  26  8
25  27  8
7  4  6
6  20  8
6  24  8
8  11  8
8  9  8
9  12  8

$$$$
