49830673
  -OEChem-03202503162D

 46 49  0     0  0  0  0  0  0999 V2000
    6.8671    4.9470    0.0000 F   0  0  0  0  0  0  0  0  0  0  0  0
    6.0010    1.4470    0.0000 O   0  0  0  0  0  0  0  0  0  0  0  0
    2.5369    3.4470    0.0000 O   0  0  0  0  0  0  0  0  0  0  0  0
    3.4030    1.9470    0.0000 O   0  0  0  0  0  0  0  0  0  0  0  0
    9.5453   -4.3577    0.0000 N   0  0  0  0  0  0  0  0  0  0  0  0
   10.1289   -3.5530    0.0000 N   0  0  0  0  0  0  0  0  0  0  0  0
    7.7331    1.4470    0.0000 N   0  0  0  0  0  0  0  0  0  0  0  0
    9.8560   -1.7977    0.0000 N   0  0  0  0  0  0  0  0  0  0  0  0
    6.8671    2.9470    0.0000 N   0  0  0  0  0  0  0  0  0  0  0  0
    8.5991   -3.0530    0.0000 C   0  0  0  0  0  0  0  0  0  0  0  0
    7.7331   -2.5530    0.0000 C   0  0  0  0  0  0  0  0  0  0  0  0
    8.5991   -4.0530    0.0000 C   0  0  0  0  0  0  0  0  0  0  0  0
    7.7331   -1.5530    0.0000 C   0  0  0  0  0  0  0  0  0  0  0  0
    9.5453   -2.7482    0.0000 C   0  0  0  0  0  0  0  0  0  0  0  0
    6.8671   -3.0530    0.0000 C   0  0  0  0  0  0  0  0  0  0  0  0
    7.7331   -4.5530    0.0000 C   0  0  0  0  0  0  0  0  0  0  0  0
    6.8671   -1.0530    0.0000 C   0  0  0  0  0  0  0  0  0  0  0  0
    8.5991   -1.0530    0.0000 C   0  0  0  0  0  0  0  0  0  0  0  0
    6.8671   -4.0530    0.0000 C   0  0  0  0  0  0  0  0  0  0  0  0
    7.7331    0.4470    0.0000 C   0  0  0  0  0  0  0  0  0  0  0  0
    6.8671   -0.0530    0.0000 C   0  0  0  0  0  0  0  0  0  0  0  0
    8.5991   -0.0530    0.0000 C   0  0  0  0  0  0  0  0  0  0  0  0
    6.0010    3.4470    0.0000 C   0  0  0  0  0  0  0  0  0  0  0  0
    6.8671    1.9470    0.0000 C   0  0  0  0  0  0  0  0  0  0  0  0
    5.1350    2.9470    0.0000 C   0  0  0  0  0  0  0  0  0  0  0  0
    4.2690    3.4470    0.0000 C   0  0  0  0  0  0  0  0  0  0  0  0
    6.0010    4.4470    0.0000 C   0  0  0  0  0  0  0  0  0  0  0  0
    4.2690    4.4470    0.0000 C   0  0  0  0  0  0  0  0  0  0  0  0
    5.1350    4.9470    0.0000 C   0  0  0  0  0  0  0  0  0  0  0  0
    3.4030    2.9470    0.0000 C   0  0  0  0  0  0  0  0  0  0  0  0
    6.3301   -2.7430    0.0000 H   0  0  0  0  0  0  0  0  0  0  0  0
    7.7331   -5.1730    0.0000 H   0  0  0  0  0  0  0  0  0  0  0  0
    6.3301   -1.3630    0.0000 H   0  0  0  0  0  0  0  0  0  0  0  0
    9.1360   -1.3630    0.0000 H   0  0  0  0  0  0  0  0  0  0  0  0
    6.3301   -4.3630    0.0000 H   0  0  0  0  0  0  0  0  0  0  0  0
    9.7379   -4.9470    0.0000 H   0  0  0  0  0  0  0  0  0  0  0  0
    6.3301    0.2570    0.0000 H   0  0  0  0  0  0  0  0  0  0  0  0
    9.1360    0.2570    0.0000 H   0  0  0  0  0  0  0  0  0  0  0  0
    8.2700    1.7570    0.0000 H   0  0  0  0  0  0  0  0  0  0  0  0
   10.4627   -1.6699    0.0000 H   0  0  0  0  0  0  0  0  0  0  0  0
    9.4419   -1.3362    0.0000 H   0  0  0  0  0  0  0  0  0  0  0  0
    7.4040    3.2570    0.0000 H   0  0  0  0  0  0  0  0  0  0  0  0
    5.1350    2.3270    0.0000 H   0  0  0  0  0  0  0  0  0  0  0  0
    3.7320    4.7570    0.0000 H   0  0  0  0  0  0  0  0  0  0  0  0
    5.1350    5.5670    0.0000 H   0  0  0  0  0  0  0  0  0  0  0  0
    2.0000    3.1370    0.0000 H   0  0  0  0  0  0  0  0  0  0  0  0
  1 27  1  0  0  0  0
  2 24  2  0  0  0  0
  3 30  1  0  0  0  0
  3 46  1  0  0  0  0
  4 30  2  0  0  0  0
  5  6  1  0  0  0  0
  5 12  1  0  0  0  0
  5 36  1  0  0  0  0
  6 14  2  0  0  0  0
  7 20  1  0  0  0  0
  7 24  1  0  0  0  0
  7 39  1  0  0  0  0
  8 14  1  0  0  0  0
  8 40  1  0  0  0  0
  8 41  1  0  0  0  0
  9 23  1  0  0  0  0
  9 24  1  0  0  0  0
  9 42  1  0  0  0  0
 10 11  2  0  0  0  0
 10 12  1  0  0  0  0
 10 14  1  0  0  0  0
 11 13  1  0  0  0  0
 11 15  1  0  0  0  0
 12 16  2  0  0  0  0
 13 17  2  0  0  0  0
 13 18  1  0  0  0  0
 15 19  2  0  0  0  0
 15 31  1  0  0  0  0
 16 19  1  0  0  0  0
 16 32  1  0  0  0  0
 17 21  1  0  0  0  0
 17 33  1  0  0  0  0
 18 22  2  0  0  0  0
 18 34  1  0  0  0  0
 19 35  1  0  0  0  0
 20 21  2  0  0  0  0
 20 22  1  0  0  0  0
 21 37  1  0  0  0  0
 22 38  1  0  0  0  0
 23 25  1  0  0  0  0
 23 27  2  0  0  0  0
 25 26  2  0  0  0  0
 25 43  1  0  0  0  0
 26 28  1  0  0  0  0
 26 30  1  0  0  0  0
 27 29  1  0  0  0  0
 28 29  2  0  0  0  0
 28 44  1  0  0  0  0
 29 45  1  0  0  0  0
M  END
> <PUBCHEM_COMPOUND_CID>
49830673

> <PUBCHEM_COMPOUND_CANONICALIZED>
1

> <PUBCHEM_CACTVS_COMPLEXITY>
630

> <PUBCHEM_CACTVS_HBOND_ACCEPTOR>
6

> <PUBCHEM_CACTVS_HBOND_DONOR>
5

> <PUBCHEM_CACTVS_ROTATABLE_BOND>
4

> <PUBCHEM_CACTVS_SUBSKEYS>
AAADceB7sQAAAAAAAAAAAAAAAAAAAWAAAAAwYMAAAAAAAFgB9AAAHwAYCAAADAiBnggx+PLjAgCqAybyeACSBAIlAgAcuSEwbNiIJrLA1dGE9Qh83ANI2ae8yOCOiAAAQAASAAAQAACAACQAAAAAAAAAAA==

> <PUBCHEM_IUPAC_OPENEYE_NAME>
3-[[4-(3-amino-1H-indazol-4-yl)phenyl]carbamoylamino]-4-fluoro-benzoic acid

> <PUBCHEM_IUPAC_CAS_NAME>
3-[[[4-(3-amino-1H-indazol-4-yl)anilino]-oxomethyl]amino]-4-fluorobenzoic acid

> <PUBCHEM_IUPAC_NAME_MARKUP>
3-[[4-(3-amino-1<I>H</I>-indazol-4-yl)phenyl]carbamoylamino]-4-fluorobenzoic acid

> <PUBCHEM_IUPAC_NAME>
3-[[4-(3-amino-1H-indazol-4-yl)phenyl]carbamoylamino]-4-fluorobenzoic acid

> <PUBCHEM_IUPAC_SYSTEMATIC_NAME>
3-[[4-(3-azanyl-1H-indazol-4-yl)phenyl]carbamoylamino]-4-fluoranyl-benzoic acid

> <PUBCHEM_IUPAC_TRADITIONAL_NAME>
3-[[4-(3-amino-1H-indazol-4-yl)phenyl]carbamoylamino]-4-fluoro-benzoic acid

> <PUBCHEM_IUPAC_INCHI>
InChI=1S/C21H16FN5O3/c22-15-9-6-12(20(28)29)10-17(15)25-21(30)24-13-7-4-11(5-8-13)14-2-1-3-16-18(14)19(23)27-26-16/h1-10H,(H,28,29)(H3,23,26,27)(H2,24,25,30)

> <PUBCHEM_IUPAC_INCHIKEY>
XAHJIRNRDAKTEF-UHFFFAOYSA-N

> <PUBCHEM_XLOGP3_AA>
3

> <PUBCHEM_EXACT_MASS>
405.12371755

> <PUBCHEM_MOLECULAR_FORMULA>
C21H16FN5O3

> <PUBCHEM_MOLECULAR_WEIGHT>
405.4

> <PUBCHEM_SMILES>
C1=CC(=C2C(=C1)NN=C2N)C3=CC=C(C=C3)NC(=O)NC4=C(C=CC(=C4)C(=O)O)F

> <PUBCHEM_OPENEYE_CAN_SMILES>
C1=CC(=C2C(=C1)NN=C2N)C3=CC=C(C=C3)NC(=O)NC4=C(C=CC(=C4)C(=O)O)F

> <PUBCHEM_OPENEYE_ISO_SMILES>
C1=CC(=C2C(=C1)NN=C2N)C3=CC=C(C=C3)NC(=O)NC4=C(C=CC(=C4)C(=O)O)F

> <PUBCHEM_CACTVS_TPSA>
133

> <PUBCHEM_MONOISOTOPIC_WEIGHT>
405.12371755

> <PUBCHEM_TOTAL_CHARGE>
0

> <PUBCHEM_HEAVY_ATOM_COUNT>
30

> <PUBCHEM_ATOM_DEF_STEREO_COUNT>
0

> <PUBCHEM_ATOM_UDEF_STEREO_COUNT>
0

> <PUBCHEM_BOND_DEF_STEREO_COUNT>
0

> <PUBCHEM_BOND_UDEF_STEREO_COUNT>
0

> <PUBCHEM_ISOTOPIC_ATOM_COUNT>
0

> <PUBCHEM_COMPONENT_COUNT>
1

> <PUBCHEM_CACTVS_TAUTO_COUNT>
-1

> <PUBCHEM_COORDINATE_TYPE>
1
5
255

> <PUBCHEM_BONDANNOTATIONS>
10  11  8
10  12  8
10  14  8
11  15  8
12  16  8
13  17  8
13  18  8
15  19  8
16  19  8
17  21  8
18  22  8
20  21  8
20  22  8
23  25  8
23  27  8
25  26  8
26  28  8
27  29  8
28  29  8
5  12  8
5  6  8
6  14  8

$$$$
