49830620
  -OEChem-03202502282D

 72 77  0     0  0  0  0  0  0999 V2000
    5.9209   -4.2406    0.0000 O   0  0  0  0  0  0  0  0  0  0  0  0
    4.8959   -6.6798    0.0000 O   0  0  0  0  0  0  0  0  0  0  0  0
    7.3045    6.0870    0.0000 O   0  0  0  0  0  0  0  0  0  0  0  0
    4.6783   -0.4386    0.0000 N   0  0  0  0  0  0  0  0  0  0  0  0
    5.2619    0.3662    0.0000 N   0  0  0  0  0  0  0  0  0  0  0  0
    2.8660   -0.6338    0.0000 N   0  0  0  0  0  0  0  0  0  0  0  0
    2.0000    0.8662    0.0000 N   0  0  0  0  0  0  0  0  0  0  0  0
    2.8660    2.3662    0.0000 N   0  0  0  0  0  0  0  0  0  0  0  0
    5.9209    4.9730    0.0000 N   0  0  0  0  0  0  0  0  0  0  0  0
    7.6364    4.5121    0.0000 N   0  0  0  0  0  0  0  0  0  0  0  0
    4.9889   -1.3891    0.0000 C   0  0  0  0  0  0  0  0  0  0  0  0
    5.9674   -1.5953    0.0000 C   0  0  0  0  0  0  0  0  0  0  0  0
    4.3211   -2.1334    0.0000 C   0  0  0  0  0  0  0  0  0  0  0  0
    5.6103   -3.2901    0.0000 C   0  0  0  0  0  0  0  0  0  0  0  0
    6.2781   -2.5458    0.0000 C   0  0  0  0  0  0  0  0  0  0  0  0
    4.6318   -3.0839    0.0000 C   0  0  0  0  0  0  0  0  0  0  0  0
    3.7320   -0.1338    0.0000 C   0  0  0  0  0  0  0  0  0  0  0  0
    3.7320    0.8662    0.0000 C   0  0  0  0  0  0  0  0  0  0  0  0
    4.6783    1.1709    0.0000 C   0  0  0  0  0  0  0  0  0  0  0  0
    5.2531   -4.9849    0.0000 C   0  0  0  0  0  0  0  0  0  0  0  0
    2.8660    1.3662    0.0000 C   0  0  0  0  0  0  0  0  0  0  0  0
    4.9889    2.1214    0.0000 C   0  0  0  0  0  0  0  0  0  0  0  0
    5.5637   -5.9355    0.0000 C   0  0  0  0  0  0  0  0  0  0  0  0
    2.0000   -0.1338    0.0000 C   0  0  0  0  0  0  0  0  0  0  0  0
    4.3211    2.8657    0.0000 C   0  0  0  0  0  0  0  0  0  0  0  0
    5.9674    2.3276    0.0000 C   0  0  0  0  0  0  0  0  0  0  0  0
    4.6318    3.8162    0.0000 C   0  0  0  0  0  0  0  0  0  0  0  0
    6.2781    3.2782    0.0000 C   0  0  0  0  0  0  0  0  0  0  0  0
    5.6103    4.0225    0.0000 C   0  0  0  0  0  0  0  0  0  0  0  0
    5.2066   -7.6303    0.0000 C   0  0  0  0  0  0  0  0  0  0  0  0
    6.8994    5.1792    0.0000 C   0  0  0  0  0  0  0  0  0  0  0  0
    8.2933    5.9839    0.0000 C   0  0  0  0  0  0  0  0  0  0  0  0
    8.4995    5.0054    0.0000 C   0  0  0  0  0  0  0  0  0  0  0  0
    9.0376    6.6518    0.0000 C   0  0  0  0  0  0  0  0  0  0  0  0
    9.4500    4.6948    0.0000 C   0  0  0  0  0  0  0  0  0  0  0  0
   10.1943    5.3626    0.0000 C   0  0  0  0  0  0  0  0  0  0  0  0
    9.9881    6.3411    0.0000 C   0  0  0  0  0  0  0  0  0  0  0  0
    8.8314    7.6303    0.0000 C   0  0  0  0  0  0  0  0  0  0  0  0
   11.1448    5.0520    0.0000 C   0  0  0  0  0  0  0  0  0  0  0  0
    5.4030   -0.9276    0.0000 H   0  0  0  0  0  0  0  0  0  0  0  0
    6.5812   -1.5079    0.0000 H   0  0  0  0  0  0  0  0  0  0  0  0
    5.9880   -0.9756    0.0000 H   0  0  0  0  0  0  0  0  0  0  0  0
    3.9385   -1.6455    0.0000 H   0  0  0  0  0  0  0  0  0  0  0  0
    3.7742   -2.4254    0.0000 H   0  0  0  0  0  0  0  0  0  0  0  0
    6.2169   -3.4180    0.0000 H   0  0  0  0  0  0  0  0  0  0  0  0
    6.6607   -3.0337    0.0000 H   0  0  0  0  0  0  0  0  0  0  0  0
    6.8250   -2.2538    0.0000 H   0  0  0  0  0  0  0  0  0  0  0  0
    4.0179   -3.1712    0.0000 H   0  0  0  0  0  0  0  0  0  0  0  0
    4.6112   -3.7036    0.0000 H   0  0  0  0  0  0  0  0  0  0  0  0
    4.8705   -4.4970    0.0000 H   0  0  0  0  0  0  0  0  0  0  0  0
    4.7062   -5.2770    0.0000 H   0  0  0  0  0  0  0  0  0  0  0  0
    5.9463   -6.4234    0.0000 H   0  0  0  0  0  0  0  0  0  0  0  0
    6.1107   -5.6434    0.0000 H   0  0  0  0  0  0  0  0  0  0  0  0
    1.4631   -0.4438    0.0000 H   0  0  0  0  0  0  0  0  0  0  0  0
    3.7144    2.7379    0.0000 H   0  0  0  0  0  0  0  0  0  0  0  0
    6.3815    1.8662    0.0000 H   0  0  0  0  0  0  0  0  0  0  0  0
    2.3291    2.6762    0.0000 H   0  0  0  0  0  0  0  0  0  0  0  0
    3.4030    2.6762    0.0000 H   0  0  0  0  0  0  0  0  0  0  0  0
    4.2177    4.2777    0.0000 H   0  0  0  0  0  0  0  0  0  0  0  0
    6.8848    3.4060    0.0000 H   0  0  0  0  0  0  0  0  0  0  0  0
    4.6172   -7.8229    0.0000 H   0  0  0  0  0  0  0  0  0  0  0  0
    5.3992   -8.2196    0.0000 H   0  0  0  0  0  0  0  0  0  0  0  0
    5.7959   -7.4377    0.0000 H   0  0  0  0  0  0  0  0  0  0  0  0
    5.5069    5.4344    0.0000 H   0  0  0  0  0  0  0  0  0  0  0  0
    9.5779    4.0881    0.0000 H   0  0  0  0  0  0  0  0  0  0  0  0
   10.4496    6.7552    0.0000 H   0  0  0  0  0  0  0  0  0  0  0  0
    9.4380    7.7581    0.0000 H   0  0  0  0  0  0  0  0  0  0  0  0
    8.7035    8.2370    0.0000 H   0  0  0  0  0  0  0  0  0  0  0  0
    8.2247    7.5024    0.0000 H   0  0  0  0  0  0  0  0  0  0  0  0
   10.9522    4.4626    0.0000 H   0  0  0  0  0  0  0  0  0  0  0  0
   11.7341    4.8593    0.0000 H   0  0  0  0  0  0  0  0  0  0  0  0
   11.3374    5.6413    0.0000 H   0  0  0  0  0  0  0  0  0  0  0  0
  1 14  1  0  0  0  0
  1 20  1  0  0  0  0
  2 23  1  0  0  0  0
  2 30  1  0  0  0  0
  3 31  1  0  0  0  0
  3 32  1  0  0  0  0
  4  5  1  0  0  0  0
  4 11  1  0  0  0  0
  4 17  1  0  0  0  0
  5 19  2  0  0  0  0
  6 17  2  0  0  0  0
  6 24  1  0  0  0  0
  7 21  1  0  0  0  0
  7 24  2  0  0  0  0
  8 21  1  0  0  0  0
  8 57  1  0  0  0  0
  8 58  1  0  0  0  0
  9 29  1  0  0  0  0
  9 31  1  0  0  0  0
  9 64  1  0  0  0  0
 10 31  2  0  0  0  0
 10 33  1  0  0  0  0
 11 12  1  0  0  0  0
 11 13  1  0  0  0  0
 11 40  1  0  0  0  0
 12 15  1  0  0  0  0
 12 41  1  0  0  0  0
 12 42  1  0  0  0  0
 13 16  1  0  0  0  0
 13 43  1  0  0  0  0
 13 44  1  0  0  0  0
 14 15  1  0  0  0  0
 14 16  1  0  0  0  0
 14 45  1  0  0  0  0
 15 46  1  0  0  0  0
 15 47  1  0  0  0  0
 16 48  1  0  0  0  0
 16 49  1  0  0  0  0
 17 18  1  0  0  0  0
 18 19  1  0  0  0  0
 18 21  2  0  0  0  0
 19 22  1  0  0  0  0
 20 23  1  0  0  0  0
 20 50  1  0  0  0  0
 20 51  1  0  0  0  0
 22 25  2  0  0  0  0
 22 26  1  0  0  0  0
 23 52  1  0  0  0  0
 23 53  1  0  0  0  0
 24 54  1  0  0  0  0
 25 27  1  0  0  0  0
 25 55  1  0  0  0  0
 26 28  2  0  0  0  0
 26 56  1  0  0  0  0
 27 29  2  0  0  0  0
 27 59  1  0  0  0  0
 28 29  1  0  0  0  0
 28 60  1  0  0  0  0
 30 61  1  0  0  0  0
 30 62  1  0  0  0  0
 30 63  1  0  0  0  0
 32 33  1  0  0  0  0
 32 34  2  0  0  0  0
 33 35  2  0  0  0  0
 34 37  1  0  0  0  0
 34 38  1  0  0  0  0
 35 36  1  0  0  0  0
 35 65  1  0  0  0  0
 36 37  2  0  0  0  0
 36 39  1  0  0  0  0
 37 66  1  0  0  0  0
 38 67  1  0  0  0  0
 38 68  1  0  0  0  0
 38 69  1  0  0  0  0
 39 70  1  0  0  0  0
 39 71  1  0  0  0  0
 39 72  1  0  0  0  0
M  END
> <PUBCHEM_COMPOUND_CID>
49830620

> <PUBCHEM_COMPOUND_CANONICALIZED>
1

> <PUBCHEM_CACTVS_COMPLEXITY>
778

> <PUBCHEM_CACTVS_HBOND_ACCEPTOR>
9

> <PUBCHEM_CACTVS_HBOND_DONOR>
2

> <PUBCHEM_CACTVS_ROTATABLE_BOND>
8

> <PUBCHEM_CACTVS_SUBSKEYS>
AAADcfB7sAAAAAAAAAAAAAAAAAAAAWLAAAA8YMEAAAAAAFgB/gAAHgAYAAAADDzhnwY39v7IFECqA6ZzdASSjCs/4qAd2CG9bNmPLrLE/fuPtShs3BPa6ae4yOCOKAACQAAIEABQgASAABAgAAAAAAAAAA==

> <PUBCHEM_IUPAC_OPENEYE_NAME>
N-[4-[4-amino-1-[4-(2-methoxyethoxy)cyclohexyl]pyrazolo[3,4-d]pyrimidin-3-yl]phenyl]-5,7-dimethyl-1,3-benzoxazol-2-amine

> <PUBCHEM_IUPAC_CAS_NAME>
N-[4-[4-amino-1-[4-(2-methoxyethoxy)cyclohexyl]-3-pyrazolo[3,4-d]pyrimidinyl]phenyl]-5,7-dimethyl-1,3-benzoxazol-2-amine

> <PUBCHEM_IUPAC_NAME_MARKUP>
<I>N</I>-[4-[4-amino-1-[4-(2-methoxyethoxy)cyclohexyl]pyrazolo[3,4-d]pyrimidin-3-yl]phenyl]-5,7-dimethyl-1,3-benzoxazol-2-amine

> <PUBCHEM_IUPAC_NAME>
N-[4-[4-amino-1-[4-(2-methoxyethoxy)cyclohexyl]pyrazolo[3,4-d]pyrimidin-3-yl]phenyl]-5,7-dimethyl-1,3-benzoxazol-2-amine

> <PUBCHEM_IUPAC_SYSTEMATIC_NAME>
N-[4-[4-azanyl-1-[4-(2-methoxyethoxy)cyclohexyl]pyrazolo[3,4-d]pyrimidin-3-yl]phenyl]-5,7-dimethyl-1,3-benzoxazol-2-amine

> <PUBCHEM_IUPAC_TRADITIONAL_NAME>
[4-[4-amino-1-[4-(2-methoxyethoxy)cyclohexyl]pyrazolo[3,4-d]pyrimidin-3-yl]phenyl]-(5,7-dimethyl-1,3-benzoxazol-2-yl)amine

> <PUBCHEM_IUPAC_INCHI>
InChI=1S/C29H33N7O3/c1-17-14-18(2)26-23(15-17)34-29(39-26)33-20-6-4-19(5-7-20)25-24-27(30)31-16-32-28(24)36(35-25)21-8-10-22(11-9-21)38-13-12-37-3/h4-7,14-16,21-22H,8-13H2,1-3H3,(H,33,34)(H2,30,31,32)

> <PUBCHEM_IUPAC_INCHIKEY>
CFIBXVQLBVNOHW-UHFFFAOYSA-N

> <PUBCHEM_XLOGP3_AA>
4.9

> <PUBCHEM_EXACT_MASS>
527.26448794

> <PUBCHEM_MOLECULAR_FORMULA>
C29H33N7O3

> <PUBCHEM_MOLECULAR_WEIGHT>
527.6

> <PUBCHEM_SMILES>
CC1=CC(=C2C(=C1)N=C(O2)NC3=CC=C(C=C3)C4=NN(C5=NC=NC(=C45)N)C6CCC(CC6)OCCOC)C

> <PUBCHEM_OPENEYE_CAN_SMILES>
CC1=CC(=C2C(=C1)N=C(O2)NC3=CC=C(C=C3)C4=NN(C5=NC=NC(=C45)N)C6CCC(CC6)OCCOC)C

> <PUBCHEM_OPENEYE_ISO_SMILES>
CC1=CC(=C2C(=C1)N=C(O2)NC3=CC=C(C=C3)C4=NN(C5=NC=NC(=C45)N)C6CCC(CC6)OCCOC)C

> <PUBCHEM_CACTVS_TPSA>
126

> <PUBCHEM_MONOISOTOPIC_WEIGHT>
527.26448794

> <PUBCHEM_TOTAL_CHARGE>
0

> <PUBCHEM_HEAVY_ATOM_COUNT>
39

> <PUBCHEM_ATOM_DEF_STEREO_COUNT>
0

> <PUBCHEM_ATOM_UDEF_STEREO_COUNT>
0

> <PUBCHEM_BOND_DEF_STEREO_COUNT>
0

> <PUBCHEM_BOND_UDEF_STEREO_COUNT>
0

> <PUBCHEM_ISOTOPIC_ATOM_COUNT>
0

> <PUBCHEM_COMPONENT_COUNT>
1

> <PUBCHEM_CACTVS_TAUTO_COUNT>
-1

> <PUBCHEM_COORDINATE_TYPE>
1
5
255

> <PUBCHEM_BONDANNOTATIONS>
10  31  8
10  33  8
17  18  8
18  19  8
18  21  8
22  25  8
22  26  8
25  27  8
26  28  8
27  29  8
28  29  8
3  31  8
3  32  8
32  33  8
32  34  8
33  35  8
34  37  8
35  36  8
36  37  8
4  17  8
4  5  8
5  19  8
6  17  8
6  24  8
7  21  8
7  24  8

$$$$
