44605035
  -OEChem-03192523212D

 59 63  0     0  0  0  0  0  0999 V2000
    6.8671    4.8818    0.0000 O   0  0  0  0  0  0  0  0  0  0  0  0
   10.9005   -3.9313    0.0000 O   0  0  0  0  0  0  0  0  0  0  0  0
    9.2541   -4.4693    0.0000 O   0  0  0  0  0  0  0  0  0  0  0  0
    8.6793    0.0770    0.0000 N   0  0  0  0  0  0  0  0  0  0  0  0
    9.6113   -2.7745    0.0000 N   0  0  0  0  0  0  0  0  0  0  0  0
    9.2629    0.8818    0.0000 N   0  0  0  0  0  0  0  0  0  0  0  0
    6.8671    2.8818    0.0000 N   0  0  0  0  0  0  0  0  0  0  0  0
    6.8671   -0.1182    0.0000 N   0  0  0  0  0  0  0  0  0  0  0  0
    6.0010    1.3818    0.0000 N   0  0  0  0  0  0  0  0  0  0  0  0
    2.5369   -1.6182    0.0000 N   0  0  0  0  0  0  0  0  0  0  0  0
    8.9900   -0.8735    0.0000 C   0  0  0  0  0  0  0  0  0  0  0  0
    9.9685   -1.0797    0.0000 C   0  0  0  0  0  0  0  0  0  0  0  0
    8.3221   -1.6178    0.0000 C   0  0  0  0  0  0  0  0  0  0  0  0
   10.2791   -2.0302    0.0000 C   0  0  0  0  0  0  0  0  0  0  0  0
    8.6328   -2.5683    0.0000 C   0  0  0  0  0  0  0  0  0  0  0  0
    7.7331    0.3818    0.0000 C   0  0  0  0  0  0  0  0  0  0  0  0
    7.7331    1.3818    0.0000 C   0  0  0  0  0  0  0  0  0  0  0  0
    6.8671    1.8818    0.0000 C   0  0  0  0  0  0  0  0  0  0  0  0
    8.6793    1.6865    0.0000 C   0  0  0  0  0  0  0  0  0  0  0  0
    9.9220   -3.7250    0.0000 C   0  0  0  0  0  0  0  0  0  0  0  0
    7.7331    3.3818    0.0000 C   0  0  0  0  0  0  0  0  0  0  0  0
    6.0010    3.3818    0.0000 C   0  0  0  0  0  0  0  0  0  0  0  0
    7.7331    4.3818    0.0000 C   0  0  0  0  0  0  0  0  0  0  0  0
    6.0010    4.3818    0.0000 C   0  0  0  0  0  0  0  0  0  0  0  0
    6.0010    0.3818    0.0000 C   0  0  0  0  0  0  0  0  0  0  0  0
    5.1350   -0.1182    0.0000 C   0  0  0  0  0  0  0  0  0  0  0  0
   11.2111   -4.8818    0.0000 C   0  0  0  0  0  0  0  0  0  0  0  0
    4.2690    0.3818    0.0000 C   0  0  0  0  0  0  0  0  0  0  0  0
    5.1350   -1.1182    0.0000 C   0  0  0  0  0  0  0  0  0  0  0  0
    3.4030   -0.1182    0.0000 C   0  0  0  0  0  0  0  0  0  0  0  0
    4.2690   -1.6182    0.0000 C   0  0  0  0  0  0  0  0  0  0  0  0
    3.4030   -1.1182    0.0000 C   0  0  0  0  0  0  0  0  0  0  0  0
    9.4040   -0.4120    0.0000 H   0  0  0  0  0  0  0  0  0  0  0  0
   10.5823   -0.9923    0.0000 H   0  0  0  0  0  0  0  0  0  0  0  0
    9.9890   -0.4600    0.0000 H   0  0  0  0  0  0  0  0  0  0  0  0
    7.9396   -1.1299    0.0000 H   0  0  0  0  0  0  0  0  0  0  0  0
    7.7752   -1.9098    0.0000 H   0  0  0  0  0  0  0  0  0  0  0  0
   10.6617   -2.5181    0.0000 H   0  0  0  0  0  0  0  0  0  0  0  0
   10.8261   -1.7382    0.0000 H   0  0  0  0  0  0  0  0  0  0  0  0
    8.0190   -2.6556    0.0000 H   0  0  0  0  0  0  0  0  0  0  0  0
    8.6122   -3.1880    0.0000 H   0  0  0  0  0  0  0  0  0  0  0  0
    8.8719    2.2758    0.0000 H   0  0  0  0  0  0  0  0  0  0  0  0
    7.9451    2.7992    0.0000 H   0  0  0  0  0  0  0  0  0  0  0  0
    8.3437    3.4894    0.0000 H   0  0  0  0  0  0  0  0  0  0  0  0
    5.3905    3.4894    0.0000 H   0  0  0  0  0  0  0  0  0  0  0  0
    5.7890    2.7992    0.0000 H   0  0  0  0  0  0  0  0  0  0  0  0
    8.3437    4.2741    0.0000 H   0  0  0  0  0  0  0  0  0  0  0  0
    7.9451    4.9644    0.0000 H   0  0  0  0  0  0  0  0  0  0  0  0
    5.7890    4.9644    0.0000 H   0  0  0  0  0  0  0  0  0  0  0  0
    5.3905    4.2741    0.0000 H   0  0  0  0  0  0  0  0  0  0  0  0
   10.6218   -5.0744    0.0000 H   0  0  0  0  0  0  0  0  0  0  0  0
   11.4037   -5.4711    0.0000 H   0  0  0  0  0  0  0  0  0  0  0  0
   11.8004   -4.6892    0.0000 H   0  0  0  0  0  0  0  0  0  0  0  0
    4.2690    1.0018    0.0000 H   0  0  0  0  0  0  0  0  0  0  0  0
    5.6720   -1.4282    0.0000 H   0  0  0  0  0  0  0  0  0  0  0  0
    2.8660    0.1918    0.0000 H   0  0  0  0  0  0  0  0  0  0  0  0
    4.2690   -2.2382    0.0000 H   0  0  0  0  0  0  0  0  0  0  0  0
    2.0000   -1.3082    0.0000 H   0  0  0  0  0  0  0  0  0  0  0  0
    2.5369   -2.2382    0.0000 H   0  0  0  0  0  0  0  0  0  0  0  0
  1 23  1  0  0  0  0
  1 24  1  0  0  0  0
  2 20  1  0  0  0  0
  2 27  1  0  0  0  0
  3 20  2  0  0  0  0
  4  6  1  0  0  0  0
  4 11  1  0  0  0  0
  4 16  1  0  0  0  0
  5 14  1  0  0  0  0
  5 15  1  0  0  0  0
  5 20  1  0  0  0  0
  6 19  2  0  0  0  0
  7 18  1  0  0  0  0
  7 21  1  0  0  0  0
  7 22  1  0  0  0  0
  8 16  1  0  0  0  0
  8 25  2  0  0  0  0
  9 18  2  0  0  0  0
  9 25  1  0  0  0  0
 10 32  1  0  0  0  0
 10 58  1  0  0  0  0
 10 59  1  0  0  0  0
 11 12  1  0  0  0  0
 11 13  1  0  0  0  0
 11 33  1  0  0  0  0
 12 14  1  0  0  0  0
 12 34  1  0  0  0  0
 12 35  1  0  0  0  0
 13 15  1  0  0  0  0
 13 36  1  0  0  0  0
 13 37  1  0  0  0  0
 14 38  1  0  0  0  0
 14 39  1  0  0  0  0
 15 40  1  0  0  0  0
 15 41  1  0  0  0  0
 16 17  2  0  0  0  0
 17 18  1  0  0  0  0
 17 19  1  0  0  0  0
 19 42  1  0  0  0  0
 21 23  1  0  0  0  0
 21 43  1  0  0  0  0
 21 44  1  0  0  0  0
 22 24  1  0  0  0  0
 22 45  1  0  0  0  0
 22 46  1  0  0  0  0
 23 47  1  0  0  0  0
 23 48  1  0  0  0  0
 24 49  1  0  0  0  0
 24 50  1  0  0  0  0
 25 26  1  0  0  0  0
 26 28  2  0  0  0  0
 26 29  1  0  0  0  0
 27 51  1  0  0  0  0
 27 52  1  0  0  0  0
 27 53  1  0  0  0  0
 28 30  1  0  0  0  0
 28 54  1  0  0  0  0
 29 31  2  0  0  0  0
 29 55  1  0  0  0  0
 30 32  2  0  0  0  0
 30 56  1  0  0  0  0
 31 32  1  0  0  0  0
 31 57  1  0  0  0  0
M  END
> <PUBCHEM_COMPOUND_CID>
44605035

> <PUBCHEM_COMPOUND_CANONICALIZED>
1

> <PUBCHEM_CACTVS_COMPLEXITY>
633

> <PUBCHEM_CACTVS_HBOND_ACCEPTOR>
8

> <PUBCHEM_CACTVS_HBOND_DONOR>
1

> <PUBCHEM_CACTVS_ROTATABLE_BOND>
4

> <PUBCHEM_CACTVS_SUBSKEYS>
AAADceB7sAAAAAAAAAAAAAAAAAAAAWAAAAA8WLEAAAAAAFgB/AAAHgAYAAAADCjhmwY/+N9IFACqAjZnfACShCshgqAd2CAoZJiKKKLA2dGHpAhongLYyCcQgAAOCAAAAAAAAAAQAAAAAAAAAAAAAAAAAA==

> <PUBCHEM_IUPAC_OPENEYE_NAME>
methyl 4-[6-(4-aminophenyl)-4-morpholino-pyrazolo[3,4-d]pyrimidin-1-yl]piperidine-1-carboxylate

> <PUBCHEM_IUPAC_CAS_NAME>
4-[6-(4-aminophenyl)-4-(4-morpholinyl)-1-pyrazolo[3,4-d]pyrimidinyl]-1-piperidinecarboxylic acid methyl ester

> <PUBCHEM_IUPAC_NAME_MARKUP>
methyl 4-[6-(4-aminophenyl)-4-morpholin-4-ylpyrazolo[3,4-d]pyrimidin-1-yl]piperidine-1-carboxylate

> <PUBCHEM_IUPAC_NAME>
methyl 4-[6-(4-aminophenyl)-4-morpholin-4-ylpyrazolo[3,4-d]pyrimidin-1-yl]piperidine-1-carboxylate

> <PUBCHEM_IUPAC_SYSTEMATIC_NAME>
methyl 4-[6-(4-aminophenyl)-4-morpholin-4-yl-pyrazolo[3,4-d]pyrimidin-1-yl]piperidine-1-carboxylate

> <PUBCHEM_IUPAC_TRADITIONAL_NAME>
4-[6-(4-aminophenyl)-4-morpholino-pyrazolo[3,4-d]pyrimidin-1-yl]piperidine-1-carboxylic acid methyl ester

> <PUBCHEM_IUPAC_INCHI>
InChI=1S/C22H27N7O3/c1-31-22(30)28-8-6-17(7-9-28)29-21-18(14-24-29)20(27-10-12-32-13-11-27)25-19(26-21)15-2-4-16(23)5-3-15/h2-5,14,17H,6-13,23H2,1H3

> <PUBCHEM_IUPAC_INCHIKEY>
OFIHBQUKIUHAHV-UHFFFAOYSA-N

> <PUBCHEM_XLOGP3_AA>
1.6

> <PUBCHEM_EXACT_MASS>
437.21753775

> <PUBCHEM_MOLECULAR_FORMULA>
C22H27N7O3

> <PUBCHEM_MOLECULAR_WEIGHT>
437.5

> <PUBCHEM_SMILES>
COC(=O)N1CCC(CC1)N2C3=C(C=N2)C(=NC(=N3)C4=CC=C(C=C4)N)N5CCOCC5

> <PUBCHEM_OPENEYE_CAN_SMILES>
COC(=O)N1CCC(CC1)N2C3=C(C=N2)C(=NC(=N3)C4=CC=C(C=C4)N)N5CCOCC5

> <PUBCHEM_OPENEYE_ISO_SMILES>
COC(=O)N1CCC(CC1)N2C3=C(C=N2)C(=NC(=N3)C4=CC=C(C=C4)N)N5CCOCC5

> <PUBCHEM_CACTVS_TPSA>
112

> <PUBCHEM_MONOISOTOPIC_WEIGHT>
437.21753775

> <PUBCHEM_TOTAL_CHARGE>
0

> <PUBCHEM_HEAVY_ATOM_COUNT>
32

> <PUBCHEM_ATOM_DEF_STEREO_COUNT>
0

> <PUBCHEM_ATOM_UDEF_STEREO_COUNT>
0

> <PUBCHEM_BOND_DEF_STEREO_COUNT>
0

> <PUBCHEM_BOND_UDEF_STEREO_COUNT>
0

> <PUBCHEM_ISOTOPIC_ATOM_COUNT>
0

> <PUBCHEM_COMPONENT_COUNT>
1

> <PUBCHEM_CACTVS_TAUTO_COUNT>
-1

> <PUBCHEM_COORDINATE_TYPE>
1
5
255

> <PUBCHEM_BONDANNOTATIONS>
16  17  8
17  18  8
17  19  8
26  28  8
26  29  8
28  30  8
29  31  8
30  32  8
31  32  8
4  16  8
4  6  8
6  19  8
8  16  8
8  25  8
9  18  8
9  25  8

$$$$
