9795307
  -OEChem-03202500292D

 26 27  0     0  0  0  0  0  0999 V2000
    2.3140    4.1861    0.0000 Cl  0  0  0  0  0  0  0  0  0  0  0  0
    2.5062    6.8901    0.0000 Cl  0  5  0  0  0  0  0  0  0  0  0  0
    4.9338    0.6546    0.0000 O   0  0  0  0  0  0  0  0  0  0  0  0
    2.3358    2.1546    0.0000 N   0  3  0  0  0  0  0  0  0  0  0  0
    3.2018    2.6546    0.0000 C   0  0  0  0  0  0  0  0  0  0  0  0
    4.0678    2.1546    0.0000 C   0  0  0  0  0  0  0  0  0  0  0  0
    2.3358    1.1546    0.0000 C   0  0  0  0  0  0  0  0  0  0  0  0
    4.0678    1.1546    0.0000 C   0  0  0  0  0  0  0  0  0  0  0  0
    3.2018    0.6546    0.0000 C   0  0  0  0  0  0  0  0  0  0  0  0
    3.1857    3.6961    0.0000 C   0  0  0  0  0  0  0  0  0  0  0  0
    1.4418    2.6893    0.0000 C   0  0  0  0  0  0  0  0  0  0  0  0
    4.9778    2.6615    0.0000 C   0  0  0  0  0  0  0  0  0  0  0  0
    1.4418    0.6200    0.0000 C   0  0  0  0  0  0  0  0  0  0  0  0
    4.0838    4.2239    0.0000 C   0  0  0  0  0  0  0  0  0  0  0  0
    0.5357    2.1754    0.0000 C   0  0  0  0  0  0  0  0  0  0  0  0
    4.9858    3.7031    0.0000 C   0  0  0  0  0  0  0  0  0  0  0  0
    0.5357    1.1338    0.0000 C   0  0  0  0  0  0  0  0  0  0  0  0
    3.2018    0.0346    0.0000 H   0  0  0  0  0  0  0  0  0  0  0  0
    1.4490    3.3092    0.0000 H   0  0  0  0  0  0  0  0  0  0  0  0
    5.5111    2.3453    0.0000 H   0  0  0  0  0  0  0  0  0  0  0  0
    1.4490    0.0000    0.0000 H   0  0  0  0  0  0  0  0  0  0  0  0
    4.0814    4.8439    0.0000 H   0  0  0  0  0  0  0  0  0  0  0  0
    0.0000    2.4875    0.0000 H   0  0  0  0  0  0  0  0  0  0  0  0
    5.5240    4.0110    0.0000 H   0  0  0  0  0  0  0  0  0  0  0  0
    0.0000    0.8217    0.0000 H   0  0  0  0  0  0  0  0  0  0  0  0
    4.9338    0.0346    0.0000 H   0  0  0  0  0  0  0  0  0  0  0  0
  1 10  1  0  0  0  0
  3  8  1  0  0  0  0
  3 26  1  0  0  0  0
  4  5  1  0  0  0  0
  4  7  1  0  0  0  0
  4 11  2  0  0  0  0
  5  6  2  0  0  0  0
  5 10  1  0  0  0  0
  6  8  1  0  0  0  0
  6 12  1  0  0  0  0
  7  9  1  0  0  0  0
  7 13  2  0  0  0  0
  8  9  2  0  0  0  0
  9 18  1  0  0  0  0
 10 14  2  0  0  0  0
 11 15  1  0  0  0  0
 11 19  1  0  0  0  0
 12 16  2  0  0  0  0
 12 20  1  0  0  0  0
 13 17  1  0  0  0  0
 13 21  1  0  0  0  0
 14 16  1  0  0  0  0
 14 22  1  0  0  0  0
 15 17  2  0  0  0  0
 15 23  1  0  0  0  0
 16 24  1  0  0  0  0
 17 25  1  0  0  0  0
M  CHG  2   2  -1   4   1
M  END
> <PUBCHEM_COMPOUND_CID>
9795307

> <PUBCHEM_COMPOUND_CANONICALIZED>
1

> <PUBCHEM_CACTVS_COMPLEXITY>
260

> <PUBCHEM_CACTVS_HBOND_ACCEPTOR>
2

> <PUBCHEM_CACTVS_HBOND_DONOR>
1

> <PUBCHEM_CACTVS_ROTATABLE_BOND>
0

> <PUBCHEM_CACTVS_SUBSKEYS>
AAADccByIAAGAAAAAAAAAAAAAAAAAAAAAAA8WIAAAAAAAACx/gAAHgIACAAADA7BniQ8xvMMGgCgAzRnRACCgCAxJyAI2CA+bpgIJuLDk5PEcAhmwBnI2AeQwOAOAAAAIAACABAAAABAAAQAIAAAAAAAAA==

> <PUBCHEM_IUPAC_OPENEYE_NAME>
10-chlorobenzo[c]quinolizin-11-ium-6-ol;chloride

> <PUBCHEM_IUPAC_CAS_NAME>
10-chloro-6-benzo[c]quinolizin-11-iumol;chloride

> <PUBCHEM_IUPAC_NAME_MARKUP>
10-chlorobenzo[c]quinolizin-11-ium-6-ol;chloride

> <PUBCHEM_IUPAC_NAME>
10-chlorobenzo[c]quinolizin-11-ium-6-ol;chloride

> <PUBCHEM_IUPAC_SYSTEMATIC_NAME>
10-chloranylbenzo[c]quinolizin-11-ium-6-ol;chloride

> <PUBCHEM_IUPAC_TRADITIONAL_NAME>
10-chlorobenzo[c]quinolizin-11-ium-6-ol;chloride

> <PUBCHEM_IUPAC_INCHI>
InChI=1S/C13H8ClNO.ClH/c14-11-6-3-5-10-12(16)8-9-4-1-2-7-15(9)13(10)11;/h1-8H;1H

> <PUBCHEM_IUPAC_INCHIKEY>
JLQNXWHJIQWBMH-UHFFFAOYSA-N

> <PUBCHEM_EXACT_MASS>
265.0061193

> <PUBCHEM_MOLECULAR_FORMULA>
C13H9Cl2NO

> <PUBCHEM_MOLECULAR_WEIGHT>
266.12

> <PUBCHEM_SMILES>
C1=CC=[N+]2C(=C1)C=C(C3=C2C(=CC=C3)Cl)O.[Cl-]

> <PUBCHEM_OPENEYE_CAN_SMILES>
C1=CC=[N+]2C(=C1)C=C(C3=C2C(=CC=C3)Cl)O.[Cl-]

> <PUBCHEM_OPENEYE_ISO_SMILES>
C1=CC=[N+]2C(=C1)C=C(C3=C2C(=CC=C3)Cl)O.[Cl-]

> <PUBCHEM_CACTVS_TPSA>
24.3

> <PUBCHEM_MONOISOTOPIC_WEIGHT>
265.0061193

> <PUBCHEM_TOTAL_CHARGE>
0

> <PUBCHEM_HEAVY_ATOM_COUNT>
17

> <PUBCHEM_ATOM_DEF_STEREO_COUNT>
0

> <PUBCHEM_ATOM_UDEF_STEREO_COUNT>
0

> <PUBCHEM_BOND_DEF_STEREO_COUNT>
0

> <PUBCHEM_BOND_UDEF_STEREO_COUNT>
0

> <PUBCHEM_ISOTOPIC_ATOM_COUNT>
0

> <PUBCHEM_COMPONENT_COUNT>
2

> <PUBCHEM_CACTVS_TAUTO_COUNT>
-1

> <PUBCHEM_COORDINATE_TYPE>
1
5
255

> <PUBCHEM_BONDANNOTATIONS>
10  14  8
11  15  8
12  16  8
13  17  8
14  16  8
15  17  8
4  11  8
4  5  8
4  7  8
5  10  8
5  6  8
6  12  8
6  8  8
7  13  8
7  9  8
8  9  8

$$$$
