11620055
  -OEChem-03202504372D

 62 65  0     1  0  0  0  0  0999 V2000
   11.0437   -3.5272    0.0000 Cl  0  0  0  0  0  0  0  0  0  0  0  0
    9.3234   -2.5072    0.0000 F   0  0  0  0  0  0  0  0  0  0  0  0
    6.6276   -1.5652    0.0000 O   0  0  0  0  0  0  0  0  0  0  0  0
    5.8660    2.5272    0.0000 O   0  0  0  0  0  0  0  0  0  0  0  0
    5.8660   -0.4728    0.0000 N   0  0  3  0  0  0  0  0  0  0  0  0
    3.0000   -0.9728    0.0000 N   0  0  0  0  0  0  0  0  0  0  0  0
    5.3008   -2.6785    0.0000 N   0  0  0  0  0  0  0  0  0  0  0  0
    9.3580    2.5619    0.0000 N   0  0  0  0  0  0  0  0  0  0  0  0
    9.3465   -0.5074    0.0000 N   0  0  0  0  0  0  0  0  0  0  0  0
   10.2641    1.0064    0.0000 N   0  0  0  0  0  0  0  0  0  0  0  0
    5.0000   -0.9728    0.0000 C   0  0  0  0  0  0  0  0  0  0  0  0
    4.5000   -1.8388    0.0000 C   0  0  0  0  0  0  0  0  0  0  0  0
    4.5000   -0.1068    0.0000 C   0  0  0  0  0  0  0  0  0  0  0  0
    3.5000   -1.8388    0.0000 C   0  0  0  0  0  0  0  0  0  0  0  0
    3.5000   -0.1068    0.0000 C   0  0  0  0  0  0  0  0  0  0  0  0
    5.6428   -1.7388    0.0000 C   0  0  0  0  0  0  0  0  0  0  0  0
    5.8660    0.5272    0.0000 C   0  0  0  0  0  0  0  0  0  0  0  0
    6.8508   -0.6464    0.0000 C   0  0  0  0  0  0  0  0  0  0  0  0
    2.0000   -0.9728    0.0000 C   0  0  0  0  0  0  0  0  0  0  0  0
    6.7320    1.0272    0.0000 C   0  0  0  0  0  0  0  0  0  0  0  0
    6.7320    2.0272    0.0000 C   0  0  0  0  0  0  0  0  0  0  0  0
    7.5981    0.5272    0.0000 C   0  0  0  0  0  0  0  0  0  0  0  0
    8.4641    1.0272    0.0000 C   0  0  0  0  0  0  0  0  0  0  0  0
    7.5981    2.5272    0.0000 C   0  0  0  0  0  0  0  0  0  0  0  0
    8.4641    2.0272    0.0000 C   0  0  0  0  0  0  0  0  0  0  0  0
    9.3580    0.4926    0.0000 C   0  0  0  0  0  0  0  0  0  0  0  0
    5.8660    3.5272    0.0000 C   0  0  0  0  0  0  0  0  0  0  0  0
   10.2641    2.0480    0.0000 C   0  0  0  0  0  0  0  0  0  0  0  0
   10.2067   -1.0174    0.0000 C   0  0  0  0  0  0  0  0  0  0  0  0
   10.1951   -2.0173    0.0000 C   0  0  0  0  0  0  0  0  0  0  0  0
   11.0784   -0.5274    0.0000 C   0  0  0  0  0  0  0  0  0  0  0  0
   11.0553   -2.5273    0.0000 C   0  0  0  0  0  0  0  0  0  0  0  0
   11.9386   -1.0374    0.0000 C   0  0  0  0  0  0  0  0  0  0  0  0
   11.9270   -2.0373    0.0000 C   0  0  0  0  0  0  0  0  0  0  0  0
    4.3923   -2.4494    0.0000 H   0  0  0  0  0  0  0  0  0  0  0  0
    5.0826   -2.0509    0.0000 H   0  0  0  0  0  0  0  0  0  0  0  0
    5.0826    0.1053    0.0000 H   0  0  0  0  0  0  0  0  0  0  0  0
    4.3923    0.5038    0.0000 H   0  0  0  0  0  0  0  0  0  0  0  0
    2.9174   -2.0509    0.0000 H   0  0  0  0  0  0  0  0  0  0  0  0
    3.6077   -2.4494    0.0000 H   0  0  0  0  0  0  0  0  0  0  0  0
    3.6077    0.5038    0.0000 H   0  0  0  0  0  0  0  0  0  0  0  0
    2.9174    0.1053    0.0000 H   0  0  0  0  0  0  0  0  0  0  0  0
    5.6540    1.1098    0.0000 H   0  0  0  0  0  0  0  0  0  0  0  0
    5.2554    0.4195    0.0000 H   0  0  0  0  0  0  0  0  0  0  0  0
    6.7432   -1.2570    0.0000 H   0  0  0  0  0  0  0  0  0  0  0  0
    7.4614   -0.7541    0.0000 H   0  0  0  0  0  0  0  0  0  0  0  0
    6.9585   -0.0359    0.0000 H   0  0  0  0  0  0  0  0  0  0  0  0
    2.0000   -0.3528    0.0000 H   0  0  0  0  0  0  0  0  0  0  0  0
    1.3800   -0.9728    0.0000 H   0  0  0  0  0  0  0  0  0  0  0  0
    2.0000   -1.5928    0.0000 H   0  0  0  0  0  0  0  0  0  0  0  0
    5.6993   -3.1535    0.0000 H   0  0  0  0  0  0  0  0  0  0  0  0
    4.6902   -2.7862    0.0000 H   0  0  0  0  0  0  0  0  0  0  0  0
    7.5981   -0.0928    0.0000 H   0  0  0  0  0  0  0  0  0  0  0  0
    7.5981    3.1472    0.0000 H   0  0  0  0  0  0  0  0  0  0  0  0
    6.4860    3.5272    0.0000 H   0  0  0  0  0  0  0  0  0  0  0  0
    5.8660    4.1472    0.0000 H   0  0  0  0  0  0  0  0  0  0  0  0
    5.2460    3.5272    0.0000 H   0  0  0  0  0  0  0  0  0  0  0  0
    8.8060   -0.8112    0.0000 H   0  0  0  0  0  0  0  0  0  0  0  0
   10.7998    2.3601    0.0000 H   0  0  0  0  0  0  0  0  0  0  0  0
   11.0856    0.0925    0.0000 H   0  0  0  0  0  0  0  0  0  0  0  0
   12.4791   -0.7336    0.0000 H   0  0  0  0  0  0  0  0  0  0  0  0
   12.4604   -2.3535    0.0000 H   0  0  0  0  0  0  0  0  0  0  0  0
  1 32  1  0  0  0  0
  2 30  1  0  0  0  0
  3 16  2  0  0  0  0
  4 21  1  0  0  0  0
  4 27  1  0  0  0  0
  5 11  1  0  0  0  0
  5 17  1  0  0  0  0
  5 18  1  0  0  0  0
  6 14  1  0  0  0  0
  6 15  1  0  0  0  0
  6 19  1  0  0  0  0
  7 16  1  0  0  0  0
  7 51  1  0  0  0  0
  7 52  1  0  0  0  0
  8 25  1  0  0  0  0
  8 28  2  0  0  0  0
  9 26  1  0  0  0  0
  9 29  1  0  0  0  0
  9 58  1  0  0  0  0
 10 26  2  0  0  0  0
 10 28  1  0  0  0  0
 11 12  1  0  0  0  0
 11 13  1  0  0  0  0
 11 16  1  0  0  0  0
 12 14  1  0  0  0  0
 12 35  1  0  0  0  0
 12 36  1  0  0  0  0
 13 15  1  0  0  0  0
 13 37  1  0  0  0  0
 13 38  1  0  0  0  0
 14 39  1  0  0  0  0
 14 40  1  0  0  0  0
 15 41  1  0  0  0  0
 15 42  1  0  0  0  0
 17 20  1  0  0  0  0
 17 43  1  0  0  0  0
 17 44  1  0  0  0  0
 18 45  1  0  0  0  0
 18 46  1  0  0  0  0
 18 47  1  0  0  0  0
 19 48  1  0  0  0  0
 19 49  1  0  0  0  0
 19 50  1  0  0  0  0
 20 21  1  0  0  0  0
 20 22  2  0  0  0  0
 21 24  2  0  0  0  0
 22 23  1  0  0  0  0
 22 53  1  0  0  0  0
 23 25  2  0  0  0  0
 23 26  1  0  0  0  0
 24 25  1  0  0  0  0
 24 54  1  0  0  0  0
 27 55  1  0  0  0  0
 27 56  1  0  0  0  0
 27 57  1  0  0  0  0
 28 59  1  0  0  0  0
 29 30  2  0  0  0  0
 29 31  1  0  0  0  0
 30 32  1  0  0  0  0
 31 33  2  0  0  0  0
 31 60  1  0  0  0  0
 32 34  2  0  0  0  0
 33 34  1  0  0  0  0
 33 61  1  0  0  0  0
 34 62  1  0  0  0  0
M  END
> <PUBCHEM_COMPOUND_CID>
11620055

> <PUBCHEM_COMPOUND_CANONICALIZED>
1

> <PUBCHEM_CACTVS_COMPLEXITY>
696

> <PUBCHEM_CACTVS_HBOND_ACCEPTOR>
8

> <PUBCHEM_CACTVS_HBOND_DONOR>
2

> <PUBCHEM_CACTVS_ROTATABLE_BOND>
7

> <PUBCHEM_CACTVS_SUBSKEYS>
AAADceB7sQAEAAAAAAAAAAAAAAAAAAAAAAA8eIEAAAAAAACx9AAAHwIQAAAADI7Bni439vfIFACoAydzdACCiCkxJ6AJ2CG+bpiMbvLF+/uUNChu0BvI6CeU0GMOKAACAgIKAABQAAQEBBQAAAAAAAAAAA==

> <PUBCHEM_IUPAC_OPENEYE_NAME>
4-[[4-(3-chloro-2-fluoro-anilino)-7-methoxy-quinazolin-6-yl]methyl-methyl-amino]-1-methyl-piperidine-4-carboxamide

> <PUBCHEM_IUPAC_CAS_NAME>
4-[[4-(3-chloro-2-fluoroanilino)-7-methoxy-6-quinazolinyl]methyl-methylamino]-1-methyl-4-piperidinecarboxamide

> <PUBCHEM_IUPAC_NAME_MARKUP>
4-[[4-(3-chloro-2-fluoroanilino)-7-methoxyquinazolin-6-yl]methyl-methylamino]-1-methylpiperidine-4-carboxamide

> <PUBCHEM_IUPAC_NAME>
4-[[4-(3-chloro-2-fluoroanilino)-7-methoxyquinazolin-6-yl]methyl-methylamino]-1-methylpiperidine-4-carboxamide

> <PUBCHEM_IUPAC_SYSTEMATIC_NAME>
4-[[4-[(3-chloranyl-2-fluoranyl-phenyl)amino]-7-methoxy-quinazolin-6-yl]methyl-methyl-amino]-1-methyl-piperidine-4-carboxamide

> <PUBCHEM_IUPAC_TRADITIONAL_NAME>
4-[[4-(3-chloro-2-fluoro-anilino)-7-methoxy-quinazolin-6-yl]methyl-methyl-amino]-1-methyl-isonipecotamide

> <PUBCHEM_IUPAC_INCHI>
InChI=1S/C24H28ClFN6O2/c1-31-9-7-24(8-10-31,23(27)33)32(2)13-15-11-16-19(12-20(15)34-3)28-14-29-22(16)30-18-6-4-5-17(25)21(18)26/h4-6,11-12,14H,7-10,13H2,1-3H3,(H2,27,33)(H,28,29,30)

> <PUBCHEM_IUPAC_INCHIKEY>
XRUQVQJWTQESAB-UHFFFAOYSA-N

> <PUBCHEM_XLOGP3_AA>
3.3

> <PUBCHEM_EXACT_MASS>
486.1946300

> <PUBCHEM_MOLECULAR_FORMULA>
C24H28ClFN6O2

> <PUBCHEM_MOLECULAR_WEIGHT>
487.0

> <PUBCHEM_SMILES>
CN1CCC(CC1)(C(=O)N)N(C)CC2=CC3=C(C=C2OC)N=CN=C3NC4=C(C(=CC=C4)Cl)F

> <PUBCHEM_OPENEYE_CAN_SMILES>
CN1CCC(CC1)(C(=O)N)N(C)CC2=CC3=C(C=C2OC)N=CN=C3NC4=C(C(=CC=C4)Cl)F

> <PUBCHEM_OPENEYE_ISO_SMILES>
CN1CCC(CC1)(C(=O)N)N(C)CC2=CC3=C(C=C2OC)N=CN=C3NC4=C(C(=CC=C4)Cl)F

> <PUBCHEM_CACTVS_TPSA>
96.6

> <PUBCHEM_MONOISOTOPIC_WEIGHT>
486.1946300

> <PUBCHEM_TOTAL_CHARGE>
0

> <PUBCHEM_HEAVY_ATOM_COUNT>
34

> <PUBCHEM_ATOM_DEF_STEREO_COUNT>
0

> <PUBCHEM_ATOM_UDEF_STEREO_COUNT>
0

> <PUBCHEM_BOND_DEF_STEREO_COUNT>
0

> <PUBCHEM_BOND_UDEF_STEREO_COUNT>
0

> <PUBCHEM_ISOTOPIC_ATOM_COUNT>
0

> <PUBCHEM_COMPONENT_COUNT>
1

> <PUBCHEM_CACTVS_TAUTO_COUNT>
-1

> <PUBCHEM_COORDINATE_TYPE>
1
5
255

> <PUBCHEM_BONDANNOTATIONS>
10  26  8
10  28  8
20  21  8
20  22  8
21  24  8
22  23  8
23  25  8
23  26  8
24  25  8
29  30  8
29  31  8
30  32  8
31  33  8
32  34  8
33  34  8
8  25  8
8  28  8

$$$$
