25100740
  -OEChem-03202502502D

 58 62  0     0  0  0  0  0  0999 V2000
    6.1831    2.0120    0.0000 O   0  0  0  0  0  0  0  0  0  0  0  0
    6.9506   -1.9288    0.0000 O   0  0  0  0  0  0  0  0  0  0  0  0
    6.4126   -0.2824    0.0000 O   0  0  0  0  0  0  0  0  0  0  0  0
    4.4511   -0.9880    0.0000 N   0  0  0  0  0  0  0  0  0  0  0  0
    3.6464   -1.5716    0.0000 C   0  0  0  0  0  0  0  0  0  0  0  0
    4.9511   -2.5178    0.0000 C   0  0  0  0  0  0  0  0  0  0  0  0
    4.4511    0.0120    0.0000 C   0  0  0  0  0  0  0  0  0  0  0  0
    3.9570   -2.5221    0.0000 C   0  0  0  0  0  0  0  0  0  0  0  0
    5.2558   -1.5716    0.0000 C   0  0  0  0  0  0  0  0  0  0  0  0
    5.3171    0.5120    0.0000 C   0  0  0  0  0  0  0  0  0  0  0  0
    5.5417   -3.3248    0.0000 C   0  0  0  0  0  0  0  0  0  0  0  0
    2.6678   -1.3654    0.0000 C   0  0  0  0  0  0  0  0  0  0  0  0
    3.2892   -3.2664    0.0000 C   0  0  0  0  0  0  0  0  0  0  0  0
    5.3171    1.5120    0.0000 C   0  0  0  0  0  0  0  0  0  0  0  0
    5.1381   -4.2397    0.0000 C   0  0  0  0  0  0  0  0  0  0  0  0
    6.2063   -1.2609    0.0000 C   0  0  0  0  0  0  0  0  0  0  0  0
    2.0000   -2.1097    0.0000 C   0  0  0  0  0  0  0  0  0  0  0  0
    2.3107   -3.0602    0.0000 C   0  0  0  0  0  0  0  0  0  0  0  0
    6.5358   -3.2168    0.0000 C   0  0  0  0  0  0  0  0  0  0  0  0
    5.7287   -5.0467    0.0000 C   0  0  0  0  0  0  0  0  0  0  0  0
    4.1439   -4.3477    0.0000 C   0  0  0  0  0  0  0  0  0  0  0  0
    7.1264   -4.0238    0.0000 C   0  0  0  0  0  0  0  0  0  0  0  0
    6.1831    3.0120    0.0000 C   0  0  0  0  0  0  0  0  0  0  0  0
    6.7228   -4.9387    0.0000 C   0  0  0  0  0  0  0  0  0  0  0  0
    7.0492    3.5120    0.0000 C   0  0  0  0  0  0  0  0  0  0  0  0
    7.0492    4.5120    0.0000 C   0  0  0  0  0  0  0  0  0  0  0  0
    5.3171    3.5120    0.0000 C   0  0  0  0  0  0  0  0  0  0  0  0
    7.9431    2.9774    0.0000 C   0  0  0  0  0  0  0  0  0  0  0  0
    6.1831    5.0120    0.0000 C   0  0  0  0  0  0  0  0  0  0  0  0
    5.3171    4.5120    0.0000 C   0  0  0  0  0  0  0  0  0  0  0  0
    7.9431    5.0467    0.0000 C   0  0  0  0  0  0  0  0  0  0  0  0
    8.8492    3.4912    0.0000 C   0  0  0  0  0  0  0  0  0  0  0  0
    8.8492    4.5328    0.0000 C   0  0  0  0  0  0  0  0  0  0  0  0
    4.2390    0.5946    0.0000 H   0  0  0  0  0  0  0  0  0  0  0  0
    3.8405   -0.0956    0.0000 H   0  0  0  0  0  0  0  0  0  0  0  0
    5.5292   -0.0706    0.0000 H   0  0  0  0  0  0  0  0  0  0  0  0
    5.9277    0.6197    0.0000 H   0  0  0  0  0  0  0  0  0  0  0  0
    2.4752   -0.7760    0.0000 H   0  0  0  0  0  0  0  0  0  0  0  0
    3.4818   -3.8557    0.0000 H   0  0  0  0  0  0  0  0  0  0  0  0
    5.1050    2.0946    0.0000 H   0  0  0  0  0  0  0  0  0  0  0  0
    4.7065    1.4044    0.0000 H   0  0  0  0  0  0  0  0  0  0  0  0
    1.3933   -1.9818    0.0000 H   0  0  0  0  0  0  0  0  0  0  0  0
    1.8966   -3.5216    0.0000 H   0  0  0  0  0  0  0  0  0  0  0  0
    6.7860   -2.6495    0.0000 H   0  0  0  0  0  0  0  0  0  0  0  0
    5.4785   -5.6140    0.0000 H   0  0  0  0  0  0  0  0  0  0  0  0
    4.0770   -3.7313    0.0000 H   0  0  0  0  0  0  0  0  0  0  0  0
    3.5276   -4.4146    0.0000 H   0  0  0  0  0  0  0  0  0  0  0  0
    4.2109   -4.9641    0.0000 H   0  0  0  0  0  0  0  0  0  0  0  0
    7.7428   -3.9568    0.0000 H   0  0  0  0  0  0  0  0  0  0  0  0
    7.0890   -5.4390    0.0000 H   0  0  0  0  0  0  0  0  0  0  0  0
    7.5400   -1.7361    0.0000 H   0  0  0  0  0  0  0  0  0  0  0  0
    4.7802    3.2020    0.0000 H   0  0  0  0  0  0  0  0  0  0  0  0
    7.9359    2.3574    0.0000 H   0  0  0  0  0  0  0  0  0  0  0  0
    6.1831    5.6320    0.0000 H   0  0  0  0  0  0  0  0  0  0  0  0
    4.7802    4.8220    0.0000 H   0  0  0  0  0  0  0  0  0  0  0  0
    7.9359    5.6667    0.0000 H   0  0  0  0  0  0  0  0  0  0  0  0
    9.3849    3.1792    0.0000 H   0  0  0  0  0  0  0  0  0  0  0  0
    9.3849    4.8449    0.0000 H   0  0  0  0  0  0  0  0  0  0  0  0
  1 14  1  0  0  0  0
  1 23  1  0  0  0  0
  2 16  1  0  0  0  0
  2 51  1  0  0  0  0
  3 16  2  0  0  0  0
  4  5  1  0  0  0  0
  4  7  1  0  0  0  0
  4  9  1  0  0  0  0
  5  8  1  0  0  0  0
  5 12  2  0  0  0  0
  6  8  1  0  0  0  0
  6  9  2  0  0  0  0
  6 11  1  0  0  0  0
  7 10  1  0  0  0  0
  7 34  1  0  0  0  0
  7 35  1  0  0  0  0
  8 13  2  0  0  0  0
  9 16  1  0  0  0  0
 10 14  1  0  0  0  0
 10 36  1  0  0  0  0
 10 37  1  0  0  0  0
 11 15  1  0  0  0  0
 11 19  2  0  0  0  0
 12 17  1  0  0  0  0
 12 38  1  0  0  0  0
 13 18  1  0  0  0  0
 13 39  1  0  0  0  0
 14 40  1  0  0  0  0
 14 41  1  0  0  0  0
 15 20  2  0  0  0  0
 15 21  1  0  0  0  0
 17 18  2  0  0  0  0
 17 42  1  0  0  0  0
 18 43  1  0  0  0  0
 19 22  1  0  0  0  0
 19 44  1  0  0  0  0
 20 24  1  0  0  0  0
 20 45  1  0  0  0  0
 21 46  1  0  0  0  0
 21 47  1  0  0  0  0
 21 48  1  0  0  0  0
 22 24  2  0  0  0  0
 22 49  1  0  0  0  0
 23 25  1  0  0  0  0
 23 27  2  0  0  0  0
 24 50  1  0  0  0  0
 25 26  1  0  0  0  0
 25 28  2  0  0  0  0
 26 29  1  0  0  0  0
 26 31  2  0  0  0  0
 27 30  1  0  0  0  0
 27 52  1  0  0  0  0
 28 32  1  0  0  0  0
 28 53  1  0  0  0  0
 29 30  2  0  0  0  0
 29 54  1  0  0  0  0
 30 55  1  0  0  0  0
 31 33  1  0  0  0  0
 31 56  1  0  0  0  0
 32 33  2  0  0  0  0
 32 57  1  0  0  0  0
 33 58  1  0  0  0  0
M  END
> <PUBCHEM_COMPOUND_CID>
25100740

> <PUBCHEM_COMPOUND_CANONICALIZED>
1

> <PUBCHEM_CACTVS_COMPLEXITY>
653

> <PUBCHEM_CACTVS_HBOND_ACCEPTOR>
3

> <PUBCHEM_CACTVS_HBOND_DONOR>
1

> <PUBCHEM_CACTVS_ROTATABLE_BOND>
7

> <PUBCHEM_CACTVS_SUBSKEYS>
AAADceB6MAAAAAAAAAAAAAAAAAAAAWAAAAAwYMGAAAAAAFjB9AAAHgAACAAADAzhngYyzvMMFgCoAyTyTASCiCAnIiAI2CG+bNgOJvLEtbuGeSjmwBHY+QeY2fOegAABAAAaAAAAAAIAADQAAAAAAAAAAA==

> <PUBCHEM_IUPAC_OPENEYE_NAME>
1-[3-(1-naphthyloxy)propyl]-3-(o-tolyl)indole-2-carboxylic acid

> <PUBCHEM_IUPAC_CAS_NAME>
3-(2-methylphenyl)-1-[3-(1-naphthalenyloxy)propyl]-2-indolecarboxylic acid

> <PUBCHEM_IUPAC_NAME_MARKUP>
3-(2-methylphenyl)-1-(3-naphthalen-1-yloxypropyl)indole-2-carboxylic acid

> <PUBCHEM_IUPAC_NAME>
3-(2-methylphenyl)-1-(3-naphthalen-1-yloxypropyl)indole-2-carboxylic acid

> <PUBCHEM_IUPAC_SYSTEMATIC_NAME>
3-(2-methylphenyl)-1-(3-naphthalen-1-yloxypropyl)indole-2-carboxylic acid

> <PUBCHEM_IUPAC_TRADITIONAL_NAME>
1-[3-(1-naphthoxy)propyl]-3-(o-tolyl)indole-2-carboxylic acid

> <PUBCHEM_IUPAC_INCHI>
InChI=1S/C29H25NO3/c1-20-10-2-4-13-22(20)27-24-15-6-7-16-25(24)30(28(27)29(31)32)18-9-19-33-26-17-8-12-21-11-3-5-14-23(21)26/h2-8,10-17H,9,18-19H2,1H3,(H,31,32)

> <PUBCHEM_IUPAC_INCHIKEY>
STISJUSFFZAZMP-UHFFFAOYSA-N

> <PUBCHEM_XLOGP3_AA>
7.1

> <PUBCHEM_EXACT_MASS>
435.18344366

> <PUBCHEM_MOLECULAR_FORMULA>
C29H25NO3

> <PUBCHEM_MOLECULAR_WEIGHT>
435.5

> <PUBCHEM_SMILES>
CC1=CC=CC=C1C2=C(N(C3=CC=CC=C32)CCCOC4=CC=CC5=CC=CC=C54)C(=O)O

> <PUBCHEM_OPENEYE_CAN_SMILES>
CC1=CC=CC=C1C2=C(N(C3=CC=CC=C32)CCCOC4=CC=CC5=CC=CC=C54)C(=O)O

> <PUBCHEM_OPENEYE_ISO_SMILES>
CC1=CC=CC=C1C2=C(N(C3=CC=CC=C32)CCCOC4=CC=CC5=CC=CC=C54)C(=O)O

> <PUBCHEM_CACTVS_TPSA>
51.5

> <PUBCHEM_MONOISOTOPIC_WEIGHT>
435.18344366

> <PUBCHEM_TOTAL_CHARGE>
0

> <PUBCHEM_HEAVY_ATOM_COUNT>
33

> <PUBCHEM_ATOM_DEF_STEREO_COUNT>
0

> <PUBCHEM_ATOM_UDEF_STEREO_COUNT>
0

> <PUBCHEM_BOND_DEF_STEREO_COUNT>
0

> <PUBCHEM_BOND_UDEF_STEREO_COUNT>
0

> <PUBCHEM_ISOTOPIC_ATOM_COUNT>
0

> <PUBCHEM_COMPONENT_COUNT>
1

> <PUBCHEM_CACTVS_TAUTO_COUNT>
-1

> <PUBCHEM_COORDINATE_TYPE>
1
5
255

> <PUBCHEM_BONDANNOTATIONS>
11  15  8
11  19  8
12  17  8
13  18  8
15  20  8
17  18  8
19  22  8
20  24  8
22  24  8
23  25  8
23  27  8
25  26  8
25  28  8
26  29  8
26  31  8
27  30  8
28  32  8
29  30  8
31  33  8
32  33  8
4  5  8
4  9  8
5  12  8
5  8  8
6  8  8
6  9  8
8  13  8

$$$$
