14802485
  -OEChem-03202505422D

 42 43  0     0  0  0  0  0  0999 V2000
    5.4641   -1.9827    0.0000 S   0  0  0  0  0  0  0  0  0  0  0  0
    4.4641   -1.9827    0.0000 O   0  0  0  0  0  0  0  0  0  0  0  0
    6.4641   -1.9827    0.0000 O   0  0  0  0  0  0  0  0  0  0  0  0
    2.0000    4.0173    0.0000 O   0  0  0  0  0  0  0  0  0  0  0  0
    3.7320    4.0173    0.0000 O   0  0  0  0  0  0  0  0  0  0  0  0
    5.4641   -0.9827    0.0000 N   0  0  0  0  0  0  0  0  0  0  0  0
    3.7320    1.0173    0.0000 N   0  0  0  0  0  0  0  0  0  0  0  0
    8.1301   -4.5035    0.0000 N   0  0  0  0  0  0  0  0  0  0  0  0
    4.5981   -0.4827    0.0000 C   0  0  0  0  0  0  0  0  0  0  0  0
    5.4641   -2.9827    0.0000 C   0  0  0  0  0  0  0  0  0  0  0  0
    4.5981    0.5173    0.0000 C   0  0  0  0  0  0  0  0  0  0  0  0
    6.3301   -3.4827    0.0000 C   0  0  0  0  0  0  0  0  0  0  0  0
    3.7320    2.0173    0.0000 C   0  0  0  0  0  0  0  0  0  0  0  0
    6.3301   -4.4827    0.0000 C   0  0  0  0  0  0  0  0  0  0  0  0
    4.5981   -3.4827    0.0000 C   0  0  0  0  0  0  0  0  0  0  0  0
    2.8660    2.5173    0.0000 C   0  0  0  0  0  0  0  0  0  0  0  0
    5.4641   -4.9827    0.0000 C   0  0  0  0  0  0  0  0  0  0  0  0
    7.2241   -2.9480    0.0000 C   0  0  0  0  0  0  0  0  0  0  0  0
    4.5981   -4.4827    0.0000 C   0  0  0  0  0  0  0  0  0  0  0  0
    7.2241   -5.0173    0.0000 C   0  0  0  0  0  0  0  0  0  0  0  0
    8.1301   -3.4618    0.0000 C   0  0  0  0  0  0  0  0  0  0  0  0
    2.8660    3.5173    0.0000 C   0  0  0  0  0  0  0  0  0  0  0  0
    2.0000    5.0173    0.0000 C   0  0  0  0  0  0  0  0  0  0  0  0
    3.9875   -0.3750    0.0000 H   0  0  0  0  0  0  0  0  0  0  0  0
    4.3860   -1.0653    0.0000 H   0  0  0  0  0  0  0  0  0  0  0  0
    5.2087    0.4097    0.0000 H   0  0  0  0  0  0  0  0  0  0  0  0
    4.8101    1.0999    0.0000 H   0  0  0  0  0  0  0  0  0  0  0  0
    6.0010   -0.6727    0.0000 H   0  0  0  0  0  0  0  0  0  0  0  0
    3.1951    0.7073    0.0000 H   0  0  0  0  0  0  0  0  0  0  0  0
    4.3426    1.9097    0.0000 H   0  0  0  0  0  0  0  0  0  0  0  0
    3.9441    2.5999    0.0000 H   0  0  0  0  0  0  0  0  0  0  0  0
    4.0611   -3.1727    0.0000 H   0  0  0  0  0  0  0  0  0  0  0  0
    2.2554    2.6250    0.0000 H   0  0  0  0  0  0  0  0  0  0  0  0
    2.6540    1.9347    0.0000 H   0  0  0  0  0  0  0  0  0  0  0  0
    5.4641   -5.6027    0.0000 H   0  0  0  0  0  0  0  0  0  0  0  0
    7.2169   -2.3280    0.0000 H   0  0  0  0  0  0  0  0  0  0  0  0
    4.0611   -4.7927    0.0000 H   0  0  0  0  0  0  0  0  0  0  0  0
    7.2169   -5.6373    0.0000 H   0  0  0  0  0  0  0  0  0  0  0  0
    8.6659   -3.1498    0.0000 H   0  0  0  0  0  0  0  0  0  0  0  0
    2.6200    5.0173    0.0000 H   0  0  0  0  0  0  0  0  0  0  0  0
    2.0000    5.6373    0.0000 H   0  0  0  0  0  0  0  0  0  0  0  0
    1.3800    5.0173    0.0000 H   0  0  0  0  0  0  0  0  0  0  0  0
  1  2  2  0  0  0  0
  1  3  2  0  0  0  0
  1  6  1  0  0  0  0
  1 10  1  0  0  0  0
  4 22  1  0  0  0  0
  4 23  1  0  0  0  0
  5 22  2  0  0  0  0
  6  9  1  0  0  0  0
  6 28  1  0  0  0  0
  7 11  1  0  0  0  0
  7 13  1  0  0  0  0
  7 29  1  0  0  0  0
  8 20  2  0  0  0  0
  8 21  1  0  0  0  0
  9 11  1  0  0  0  0
  9 24  1  0  0  0  0
  9 25  1  0  0  0  0
 10 12  1  0  0  0  0
 10 15  2  0  0  0  0
 11 26  1  0  0  0  0
 11 27  1  0  0  0  0
 12 14  2  0  0  0  0
 12 18  1  0  0  0  0
 13 16  1  0  0  0  0
 13 30  1  0  0  0  0
 13 31  1  0  0  0  0
 14 17  1  0  0  0  0
 14 20  1  0  0  0  0
 15 19  1  0  0  0  0
 15 32  1  0  0  0  0
 16 22  1  0  0  0  0
 16 33  1  0  0  0  0
 16 34  1  0  0  0  0
 17 19  2  0  0  0  0
 17 35  1  0  0  0  0
 18 21  2  0  0  0  0
 18 36  1  0  0  0  0
 19 37  1  0  0  0  0
 20 38  1  0  0  0  0
 21 39  1  0  0  0  0
 23 40  1  0  0  0  0
 23 41  1  0  0  0  0
 23 42  1  0  0  0  0
M  END
> <PUBCHEM_COMPOUND_CID>
14802485

> <PUBCHEM_COMPOUND_CANONICALIZED>
1

> <PUBCHEM_CACTVS_COMPLEXITY>
478

> <PUBCHEM_CACTVS_HBOND_ACCEPTOR>
7

> <PUBCHEM_CACTVS_HBOND_DONOR>
2

> <PUBCHEM_CACTVS_ROTATABLE_BOND>
9

> <PUBCHEM_CACTVS_SUBSKEYS>
AAADceBzOABAAAAAAAAAAAAAAAAAAAAAAAA8QAAAAAAAAACx8AAAHgQQQAAADADB2gY+idLIFAKoAjD3THDCgDAxAiAI2Lk4ZJgIYOrAkZGUIAhikADIyAcQgIAOgAAAgAAUAAAAAAEAACgAAAAAAAAAAA==

> <PUBCHEM_IUPAC_OPENEYE_NAME>
methyl 3-[2-(5-isoquinolylsulfonylamino)ethylamino]propanoate

> <PUBCHEM_IUPAC_CAS_NAME>
3-[2-(5-isoquinolinylsulfonylamino)ethylamino]propanoic acid methyl ester

> <PUBCHEM_IUPAC_NAME_MARKUP>
methyl 3-[2-(isoquinolin-5-ylsulfonylamino)ethylamino]propanoate

> <PUBCHEM_IUPAC_NAME>
methyl 3-[2-(isoquinolin-5-ylsulfonylamino)ethylamino]propanoate

> <PUBCHEM_IUPAC_SYSTEMATIC_NAME>
methyl 3-[2-(isoquinolin-5-ylsulfonylamino)ethylamino]propanoate

> <PUBCHEM_IUPAC_TRADITIONAL_NAME>
3-[2-(5-isoquinolylsulfonylamino)ethylamino]propionic acid methyl ester

> <PUBCHEM_IUPAC_INCHI>
InChI=1S/C15H19N3O4S/c1-22-15(19)6-8-16-9-10-18-23(20,21)14-4-2-3-12-11-17-7-5-13(12)14/h2-5,7,11,16,18H,6,8-10H2,1H3

> <PUBCHEM_IUPAC_INCHIKEY>
IGTSSQKVYSLTKO-UHFFFAOYSA-N

> <PUBCHEM_XLOGP3_AA>
0.5

> <PUBCHEM_EXACT_MASS>
337.10962727

> <PUBCHEM_MOLECULAR_FORMULA>
C15H19N3O4S

> <PUBCHEM_MOLECULAR_WEIGHT>
337.4

> <PUBCHEM_SMILES>
COC(=O)CCNCCNS(=O)(=O)C1=CC=CC2=C1C=CN=C2

> <PUBCHEM_OPENEYE_CAN_SMILES>
COC(=O)CCNCCNS(=O)(=O)C1=CC=CC2=C1C=CN=C2

> <PUBCHEM_OPENEYE_ISO_SMILES>
COC(=O)CCNCCNS(=O)(=O)C1=CC=CC2=C1C=CN=C2

> <PUBCHEM_CACTVS_TPSA>
106

> <PUBCHEM_MONOISOTOPIC_WEIGHT>
337.10962727

> <PUBCHEM_TOTAL_CHARGE>
0

> <PUBCHEM_HEAVY_ATOM_COUNT>
23

> <PUBCHEM_ATOM_DEF_STEREO_COUNT>
0

> <PUBCHEM_ATOM_UDEF_STEREO_COUNT>
0

> <PUBCHEM_BOND_DEF_STEREO_COUNT>
0

> <PUBCHEM_BOND_UDEF_STEREO_COUNT>
0

> <PUBCHEM_ISOTOPIC_ATOM_COUNT>
0

> <PUBCHEM_COMPONENT_COUNT>
1

> <PUBCHEM_CACTVS_TAUTO_COUNT>
-1

> <PUBCHEM_COORDINATE_TYPE>
1
5
255

> <PUBCHEM_BONDANNOTATIONS>
10  12  8
10  15  8
12  14  8
12  18  8
14  17  8
14  20  8
15  19  8
17  19  8
18  21  8
8  20  8
8  21  8

$$$$
