44368815
  -OEChem-03202505412D

 55 59  0     0  0  0  0  0  0999 V2000
    5.5321    2.5173    0.0000 O   0  0  0  0  0  0  0  0  0  0  0  0
    6.3981    1.0173    0.0000 N   0  0  0  0  0  0  0  0  0  0  0  0
    8.1301    1.0173    0.0000 N   0  0  0  0  0  0  0  0  0  0  0  0
    5.5321   -3.4827    0.0000 N   0  0  0  0  0  0  0  0  0  0  0  0
    8.9962   -2.4827    0.0000 N   0  0  0  0  0  0  0  0  0  0  0  0
    4.6660   -1.9827    0.0000 C   0  0  0  0  0  0  0  0  0  0  0  0
    3.8000   -2.4827    0.0000 C   0  0  0  0  0  0  0  0  0  0  0  0
    4.6660   -0.9827    0.0000 C   0  0  0  0  0  0  0  0  0  0  0  0
    3.8000   -3.4827    0.0000 C   0  0  0  0  0  0  0  0  0  0  0  0
    5.5321    0.5173    0.0000 C   0  0  0  0  0  0  0  0  0  0  0  0
    5.5321   -0.4827    0.0000 C   0  0  0  0  0  0  0  0  0  0  0  0
    8.1301    2.0173    0.0000 C   0  0  0  0  0  0  0  0  0  0  0  0
    7.2641    2.5173    0.0000 C   0  0  0  0  0  0  0  0  0  0  0  0
    3.8000   -0.4827    0.0000 C   0  0  0  0  0  0  0  0  0  0  0  0
    2.9061   -1.9480    0.0000 C   0  0  0  0  0  0  0  0  0  0  0  0
    5.5321   -2.4827    0.0000 C   0  0  0  0  0  0  0  0  0  0  0  0
    8.9962    0.5173    0.0000 C   0  0  0  0  0  0  0  0  0  0  0  0
    6.3981    2.0173    0.0000 C   0  0  0  0  0  0  0  0  0  0  0  0
    4.6660    1.0173    0.0000 C   0  0  0  0  0  0  0  0  0  0  0  0
    2.9061   -4.0173    0.0000 C   0  0  0  0  0  0  0  0  0  0  0  0
    3.8000    0.5173    0.0000 C   0  0  0  0  0  0  0  0  0  0  0  0
    4.6660   -3.9827    0.0000 C   0  0  0  0  0  0  0  0  0  0  0  0
    8.9962    2.5173    0.0000 C   0  0  0  0  0  0  0  0  0  0  0  0
    7.2641    3.5173    0.0000 C   0  0  0  0  0  0  0  0  0  0  0  0
    8.9962   -0.4827    0.0000 C   0  0  0  0  0  0  0  0  0  0  0  0
    2.0000   -2.4618    0.0000 C   0  0  0  0  0  0  0  0  0  0  0  0
    2.0000   -3.5035    0.0000 C   0  0  0  0  0  0  0  0  0  0  0  0
    8.9962    3.5173    0.0000 C   0  0  0  0  0  0  0  0  0  0  0  0
    8.1301    4.0173    0.0000 C   0  0  0  0  0  0  0  0  0  0  0  0
    9.8622   -0.9827    0.0000 C   0  0  0  0  0  0  0  0  0  0  0  0
    8.1301   -0.9827    0.0000 C   0  0  0  0  0  0  0  0  0  0  0  0
    9.8622   -1.9827    0.0000 C   0  0  0  0  0  0  0  0  0  0  0  0
    8.1301   -1.9827    0.0000 C   0  0  0  0  0  0  0  0  0  0  0  0
    6.0690   -0.7927    0.0000 H   0  0  0  0  0  0  0  0  0  0  0  0
    3.2631   -0.7927    0.0000 H   0  0  0  0  0  0  0  0  0  0  0  0
    2.9132   -1.3280    0.0000 H   0  0  0  0  0  0  0  0  0  0  0  0
    6.0690   -2.1727    0.0000 H   0  0  0  0  0  0  0  0  0  0  0  0
    9.6067    0.4097    0.0000 H   0  0  0  0  0  0  0  0  0  0  0  0
    9.2082    1.0999    0.0000 H   0  0  0  0  0  0  0  0  0  0  0  0
    6.9350    0.7073    0.0000 H   0  0  0  0  0  0  0  0  0  0  0  0
    7.5932    0.7073    0.0000 H   0  0  0  0  0  0  0  0  0  0  0  0
    4.6660    1.6373    0.0000 H   0  0  0  0  0  0  0  0  0  0  0  0
    2.9132   -4.6373    0.0000 H   0  0  0  0  0  0  0  0  0  0  0  0
    3.2631    0.8273    0.0000 H   0  0  0  0  0  0  0  0  0  0  0  0
    4.6660   -4.6027    0.0000 H   0  0  0  0  0  0  0  0  0  0  0  0
    9.5331    2.2073    0.0000 H   0  0  0  0  0  0  0  0  0  0  0  0
    6.7272    3.8273    0.0000 H   0  0  0  0  0  0  0  0  0  0  0  0
    1.4643   -2.1498    0.0000 H   0  0  0  0  0  0  0  0  0  0  0  0
    1.4643   -3.8156    0.0000 H   0  0  0  0  0  0  0  0  0  0  0  0
    9.5331    3.8273    0.0000 H   0  0  0  0  0  0  0  0  0  0  0  0
    8.1301    4.6373    0.0000 H   0  0  0  0  0  0  0  0  0  0  0  0
   10.3991   -0.6727    0.0000 H   0  0  0  0  0  0  0  0  0  0  0  0
    7.5932   -0.6727    0.0000 H   0  0  0  0  0  0  0  0  0  0  0  0
   10.3991   -2.2927    0.0000 H   0  0  0  0  0  0  0  0  0  0  0  0
    7.5932   -2.2927    0.0000 H   0  0  0  0  0  0  0  0  0  0  0  0
  1 18  2  0  0  0  0
  2 10  1  0  0  0  0
  2 18  1  0  0  0  0
  2 40  1  0  0  0  0
  3 12  1  0  0  0  0
  3 17  1  0  0  0  0
  3 41  1  0  0  0  0
  4 16  1  0  0  0  0
  4 22  2  0  0  0  0
  5 32  2  0  0  0  0
  5 33  1  0  0  0  0
  6  7  1  0  0  0  0
  6  8  1  0  0  0  0
  6 16  2  0  0  0  0
  7  9  1  0  0  0  0
  7 15  2  0  0  0  0
  8 11  2  0  0  0  0
  8 14  1  0  0  0  0
  9 20  2  0  0  0  0
  9 22  1  0  0  0  0
 10 11  1  0  0  0  0
 10 19  2  0  0  0  0
 11 34  1  0  0  0  0
 12 13  1  0  0  0  0
 12 23  2  0  0  0  0
 13 18  1  0  0  0  0
 13 24  2  0  0  0  0
 14 21  2  0  0  0  0
 14 35  1  0  0  0  0
 15 26  1  0  0  0  0
 15 36  1  0  0  0  0
 16 37  1  0  0  0  0
 17 25  1  0  0  0  0
 17 38  1  0  0  0  0
 17 39  1  0  0  0  0
 19 21  1  0  0  0  0
 19 42  1  0  0  0  0
 20 27  1  0  0  0  0
 20 43  1  0  0  0  0
 21 44  1  0  0  0  0
 22 45  1  0  0  0  0
 23 28  1  0  0  0  0
 23 46  1  0  0  0  0
 24 29  1  0  0  0  0
 24 47  1  0  0  0  0
 25 30  2  0  0  0  0
 25 31  1  0  0  0  0
 26 27  2  0  0  0  0
 26 48  1  0  0  0  0
 27 49  1  0  0  0  0
 28 29  2  0  0  0  0
 28 50  1  0  0  0  0
 29 51  1  0  0  0  0
 30 32  1  0  0  0  0
 30 52  1  0  0  0  0
 31 33  2  0  0  0  0
 31 53  1  0  0  0  0
 32 54  1  0  0  0  0
 33 55  1  0  0  0  0
M  END
> <PUBCHEM_COMPOUND_CID>
44368815

> <PUBCHEM_COMPOUND_CANONICALIZED>
1

> <PUBCHEM_CACTVS_COMPLEXITY>
621

> <PUBCHEM_CACTVS_HBOND_ACCEPTOR>
4

> <PUBCHEM_CACTVS_HBOND_DONOR>
2

> <PUBCHEM_CACTVS_ROTATABLE_BOND>
6

> <PUBCHEM_CACTVS_SUBSKEYS>
AAADceB7oAAAAAAAAAAAAAAAAAAAAAAAAAA8eMECAAAAAACx/AAAHgAQAAAADAjBmgQ8wNLIEACoAjV3VACCgCA1AiAI2KE4ZNgIIPrA1ZGEIYhglADIyccYiMCOgAAAQAASAAAAAACAACQAAAAAAAAAAA==

> <PUBCHEM_IUPAC_OPENEYE_NAME>
N-[3-(4-isoquinolyl)phenyl]-2-(4-pyridylmethylamino)benzamide

> <PUBCHEM_IUPAC_CAS_NAME>
N-[3-(4-isoquinolinyl)phenyl]-2-(pyridin-4-ylmethylamino)benzamide

> <PUBCHEM_IUPAC_NAME_MARKUP>
<I>N</I>-(3-isoquinolin-4-ylphenyl)-2-(pyridin-4-ylmethylamino)benzamide

> <PUBCHEM_IUPAC_NAME>
N-(3-isoquinolin-4-ylphenyl)-2-(pyridin-4-ylmethylamino)benzamide

> <PUBCHEM_IUPAC_SYSTEMATIC_NAME>
N-(3-isoquinolin-4-ylphenyl)-2-(pyridin-4-ylmethylamino)benzamide

> <PUBCHEM_IUPAC_TRADITIONAL_NAME>
N-[3-(4-isoquinolyl)phenyl]-2-(4-pyridylmethylamino)benzamide

> <PUBCHEM_IUPAC_INCHI>
InChI=1S/C28H22N4O/c33-28(25-10-3-4-11-27(25)31-17-20-12-14-29-15-13-20)32-23-8-5-7-21(16-23)26-19-30-18-22-6-1-2-9-24(22)26/h1-16,18-19,31H,17H2,(H,32,33)

> <PUBCHEM_IUPAC_INCHIKEY>
IGMQBINYIPIDJQ-UHFFFAOYSA-N

> <PUBCHEM_XLOGP3_AA>
5.5

> <PUBCHEM_EXACT_MASS>
430.17936134

> <PUBCHEM_MOLECULAR_FORMULA>
C28H22N4O

> <PUBCHEM_MOLECULAR_WEIGHT>
430.5

> <PUBCHEM_SMILES>
C1=CC=C2C(=C1)C=NC=C2C3=CC(=CC=C3)NC(=O)C4=CC=CC=C4NCC5=CC=NC=C5

> <PUBCHEM_OPENEYE_CAN_SMILES>
C1=CC=C2C(=C1)C=NC=C2C3=CC(=CC=C3)NC(=O)C4=CC=CC=C4NCC5=CC=NC=C5

> <PUBCHEM_OPENEYE_ISO_SMILES>
C1=CC=C2C(=C1)C=NC=C2C3=CC(=CC=C3)NC(=O)C4=CC=CC=C4NCC5=CC=NC=C5

> <PUBCHEM_CACTVS_TPSA>
66.9

> <PUBCHEM_MONOISOTOPIC_WEIGHT>
430.17936134

> <PUBCHEM_TOTAL_CHARGE>
0

> <PUBCHEM_HEAVY_ATOM_COUNT>
33

> <PUBCHEM_ATOM_DEF_STEREO_COUNT>
0

> <PUBCHEM_ATOM_UDEF_STEREO_COUNT>
0

> <PUBCHEM_BOND_DEF_STEREO_COUNT>
0

> <PUBCHEM_BOND_UDEF_STEREO_COUNT>
0

> <PUBCHEM_ISOTOPIC_ATOM_COUNT>
0

> <PUBCHEM_COMPONENT_COUNT>
1

> <PUBCHEM_CACTVS_TAUTO_COUNT>
-1

> <PUBCHEM_COORDINATE_TYPE>
1
5
255

> <PUBCHEM_BONDANNOTATIONS>
10  11  8
10  19  8
12  13  8
12  23  8
13  24  8
14  21  8
15  26  8
19  21  8
20  27  8
23  28  8
24  29  8
25  30  8
25  31  8
26  27  8
28  29  8
30  32  8
31  33  8
4  16  8
4  22  8
5  32  8
5  33  8
6  16  8
6  7  8
7  15  8
7  9  8
8  11  8
8  14  8
9  20  8
9  22  8

$$$$
