44375974
  -OEChem-03202505442D

 64 69  0     0  0  0  0  0  0999 V2000
    7.4399    1.4602    0.0000 S   0  0  0  0  0  0  0  0  0  0  0  0
    4.5584   -3.5390    0.0000 S   0  0  0  0  0  0  0  0  0  0  0  0
    7.3430    2.1289    0.0000 O   0  0  0  0  0  0  0  0  0  0  0  0
    5.2788    4.9803    0.0000 O   0  0  0  0  0  0  0  0  0  0  0  0
    3.4955    2.3573    0.0000 O   0  0  0  0  0  0  0  0  0  0  0  0
    5.2727   -0.1493    0.0000 N   0  0  0  0  0  0  0  0  0  0  0  0
    6.5367    3.7180    0.0000 N   0  0  0  0  0  0  0  0  0  0  0  0
    4.2012   -5.2338    0.0000 N   0  0  0  0  0  0  0  0  0  0  0  0
    5.8475   -4.6957    0.0000 N   0  0  0  0  0  0  0  0  0  0  0  0
    5.8563    0.6554    0.0000 C   0  0  0  0  0  0  0  0  0  0  0  0
    5.2727    1.4602    0.0000 C   0  0  0  0  0  0  0  0  0  0  0  0
    4.3265    0.1554    0.0000 C   0  0  0  0  0  0  0  0  0  0  0  0
    4.3265    1.1554    0.0000 C   0  0  0  0  0  0  0  0  0  0  0  0
    5.5834   -1.0998    0.0000 C   0  0  0  0  0  0  0  0  0  0  0  0
    5.5834    2.4107    0.0000 C   0  0  0  0  0  0  0  0  0  0  0  0
    6.8563    0.6554    0.0000 C   0  0  0  0  0  0  0  0  0  0  0  0
    4.9155   -1.8441    0.0000 C   0  0  0  0  0  0  0  0  0  0  0  0
    3.4605   -0.3446    0.0000 C   0  0  0  0  0  0  0  0  0  0  0  0
    3.4605    1.6554    0.0000 C   0  0  0  0  0  0  0  0  0  0  0  0
    4.9970    3.2207    0.0000 C   0  0  0  0  0  0  0  0  0  0  0  0
    7.4399   -0.1493    0.0000 C   0  0  0  0  0  0  0  0  0  0  0  0
    6.5350    2.7180    0.0000 C   0  0  0  0  0  0  0  0  0  0  0  0
    2.5944    0.1554    0.0000 C   0  0  0  0  0  0  0  0  0  0  0  0
    5.2262   -2.7947    0.0000 C   0  0  0  0  0  0  0  0  0  0  0  0
    2.5944    1.1554    0.0000 C   0  0  0  0  0  0  0  0  0  0  0  0
    8.3862    0.1554    0.0000 C   0  0  0  0  0  0  0  0  0  0  0  0
    8.3862    1.1554    0.0000 C   0  0  0  0  0  0  0  0  0  0  0  0
    5.5862    4.0287    0.0000 C   0  0  0  0  0  0  0  0  0  0  0  0
    3.9970    3.2224    0.0000 C   0  0  0  0  0  0  0  0  0  0  0  0
    9.2522   -0.3446    0.0000 C   0  0  0  0  0  0  0  0  0  0  0  0
    9.2522    1.6554    0.0000 C   0  0  0  0  0  0  0  0  0  0  0  0
    3.4985    4.0893    0.0000 C   0  0  0  0  0  0  0  0  0  0  0  0
   10.1182    0.1554    0.0000 C   0  0  0  0  0  0  0  0  0  0  0  0
   10.1182    1.1554    0.0000 C   0  0  0  0  0  0  0  0  0  0  0  0
    2.4985    4.0910    0.0000 C   0  0  0  0  0  0  0  0  0  0  0  0
    4.0000    4.9545    0.0000 C   0  0  0  0  0  0  0  0  0  0  0  0
    4.8690   -4.4895    0.0000 C   0  0  0  0  0  0  0  0  0  0  0  0
    2.0000    4.9579    0.0000 C   0  0  0  0  0  0  0  0  0  0  0  0
    3.5015    5.8214    0.0000 C   0  0  0  0  0  0  0  0  0  0  0  0
    2.5015    5.8231    0.0000 C   0  0  0  0  0  0  0  0  0  0  0  0
    5.9659   -1.5877    0.0000 H   0  0  0  0  0  0  0  0  0  0  0  0
    6.1303   -0.8078    0.0000 H   0  0  0  0  0  0  0  0  0  0  0  0
    4.5330   -1.3562    0.0000 H   0  0  0  0  0  0  0  0  0  0  0  0
    4.3686   -2.1362    0.0000 H   0  0  0  0  0  0  0  0  0  0  0  0
    3.4605   -0.9646    0.0000 H   0  0  0  0  0  0  0  0  0  0  0  0
    3.4605    2.2754    0.0000 H   0  0  0  0  0  0  0  0  0  0  0  0
    7.2473   -0.7386    0.0000 H   0  0  0  0  0  0  0  0  0  0  0  0
    2.0575   -0.1546    0.0000 H   0  0  0  0  0  0  0  0  0  0  0  0
    5.6088   -3.2826    0.0000 H   0  0  0  0  0  0  0  0  0  0  0  0
    5.7731   -2.5026    0.0000 H   0  0  0  0  0  0  0  0  0  0  0  0
    2.0575    1.4654    0.0000 H   0  0  0  0  0  0  0  0  0  0  0  0
    7.0389    4.0816    0.0000 H   0  0  0  0  0  0  0  0  0  0  0  0
    9.2522   -0.9646    0.0000 H   0  0  0  0  0  0  0  0  0  0  0  0
    9.2522    2.2754    0.0000 H   0  0  0  0  0  0  0  0  0  0  0  0
   10.6551   -0.1546    0.0000 H   0  0  0  0  0  0  0  0  0  0  0  0
   10.6551    1.4654    0.0000 H   0  0  0  0  0  0  0  0  0  0  0  0
    2.1876    3.5547    0.0000 H   0  0  0  0  0  0  0  0  0  0  0  0
    4.6200    4.9534    0.0000 H   0  0  0  0  0  0  0  0  0  0  0  0
    1.3800    4.9590    0.0000 H   0  0  0  0  0  0  0  0  0  0  0  0
    3.8124    6.3578    0.0000 H   0  0  0  0  0  0  0  0  0  0  0  0
    2.1924    6.3606    0.0000 H   0  0  0  0  0  0  0  0  0  0  0  0
    4.3938   -5.8231    0.0000 H   0  0  0  0  0  0  0  0  0  0  0  0
    3.5945   -5.1059    0.0000 H   0  0  0  0  0  0  0  0  0  0  0  0
    6.0401   -5.2850    0.0000 H   0  0  0  0  0  0  0  0  0  0  0  0
  1 16  1  0  0  0  0
  1 27  1  0  0  0  0
  2 24  1  0  0  0  0
  2 37  1  0  0  0  0
  3 22  2  0  0  0  0
  4 28  2  0  0  0  0
  5 29  2  0  0  0  0
  6 10  1  0  0  0  0
  6 12  1  0  0  0  0
  6 14  1  0  0  0  0
  7 22  1  0  0  0  0
  7 28  1  0  0  0  0
  7 52  1  0  0  0  0
  8 37  1  0  0  0  0
  8 62  1  0  0  0  0
  8 63  1  0  0  0  0
  9 37  2  0  0  0  0
  9 64  1  0  0  0  0
 10 11  2  0  0  0  0
 10 16  1  0  0  0  0
 11 13  1  0  0  0  0
 11 15  1  0  0  0  0
 12 13  1  0  0  0  0
 12 18  2  0  0  0  0
 13 19  2  0  0  0  0
 14 17  1  0  0  0  0
 14 41  1  0  0  0  0
 14 42  1  0  0  0  0
 15 20  2  0  0  0  0
 15 22  1  0  0  0  0
 16 21  2  0  0  0  0
 17 24  1  0  0  0  0
 17 43  1  0  0  0  0
 17 44  1  0  0  0  0
 18 23  1  0  0  0  0
 18 45  1  0  0  0  0
 19 25  1  0  0  0  0
 19 46  1  0  0  0  0
 20 28  1  0  0  0  0
 20 29  1  0  0  0  0
 21 26  1  0  0  0  0
 21 47  1  0  0  0  0
 23 25  2  0  0  0  0
 23 48  1  0  0  0  0
 24 49  1  0  0  0  0
 24 50  1  0  0  0  0
 25 51  1  0  0  0  0
 26 27  1  0  0  0  0
 26 30  2  0  0  0  0
 27 31  2  0  0  0  0
 29 32  1  0  0  0  0
 30 33  1  0  0  0  0
 30 53  1  0  0  0  0
 31 34  1  0  0  0  0
 31 54  1  0  0  0  0
 32 35  2  0  0  0  0
 32 36  1  0  0  0  0
 33 34  2  0  0  0  0
 33 55  1  0  0  0  0
 34 56  1  0  0  0  0
 35 38  1  0  0  0  0
 35 57  1  0  0  0  0
 36 39  2  0  0  0  0
 36 58  1  0  0  0  0
 38 40  2  0  0  0  0
 38 59  1  0  0  0  0
 39 40  1  0  0  0  0
 39 60  1  0  0  0  0
 40 61  1  0  0  0  0
M  END
> <PUBCHEM_COMPOUND_CID>
44375974

> <PUBCHEM_COMPOUND_CANONICALIZED>
1

> <PUBCHEM_CACTVS_COMPLEXITY>
1060

> <PUBCHEM_CACTVS_HBOND_ACCEPTOR>
6

> <PUBCHEM_CACTVS_HBOND_DONOR>
3

> <PUBCHEM_CACTVS_ROTATABLE_BOND>
9

> <PUBCHEM_CACTVS_SUBSKEYS>
AAADceB7sABgAAAAAAAAAAAAAAAAAWJEAAAwYMAAAAAAAFgB/gAAHgQQAAAADAzF3gSxwfPMEAisA6VydACDgqDlCjBI2Dk4ZNgIIProlZGEIQhghCDoyYccicCegAAAAAAGAAAAAAAAAAwAAAAAAAAAAA==

> <PUBCHEM_IUPAC_OPENEYE_NAME>
2-[3-[2-(benzothiophen-2-yl)-3-(4-benzoyl-2,5-dioxo-pyrrol-3-yl)indol-1-yl]propyl]isothiourea

> <PUBCHEM_IUPAC_CAS_NAME>
carbamimidothioic acid 3-[2-(1-benzothiophen-2-yl)-3-(4-benzoyl-2,5-dioxo-3-pyrrolyl)-1-indolyl]propyl ester

> <PUBCHEM_IUPAC_NAME_MARKUP>
3-[2-(1-benzothiophen-2-yl)-3-(4-benzoyl-2,5-dioxopyrrol-3-yl)indol-1-yl]propyl carbamimidothioate

> <PUBCHEM_IUPAC_NAME>
3-[2-(1-benzothiophen-2-yl)-3-(4-benzoyl-2,5-dioxopyrrol-3-yl)indol-1-yl]propyl carbamimidothioate

> <PUBCHEM_IUPAC_SYSTEMATIC_NAME>
3-[2-(1-benzothiophen-2-yl)-3-[2,5-bis(oxidanylidene)-4-(phenylcarbonyl)pyrrol-3-yl]indol-1-yl]propyl carbamimidothioate

> <PUBCHEM_IUPAC_TRADITIONAL_NAME>
2-[3-[2-(benzothiophen-2-yl)-3-(4-benzoyl-2,5-diketo-3-pyrrolin-3-yl)indol-1-yl]propyl]isothiourea

> <PUBCHEM_IUPAC_INCHI>
InChI=1S/C31H24N4O3S2/c32-31(33)39-16-8-15-35-21-13-6-5-12-20(21)24(27(35)23-17-19-11-4-7-14-22(19)40-23)25-26(30(38)34-29(25)37)28(36)18-9-2-1-3-10-18/h1-7,9-14,17H,8,15-16H2,(H3,32,33)(H,34,37,38)

> <PUBCHEM_IUPAC_INCHIKEY>
NPPIITNJEOLQMY-UHFFFAOYSA-N

> <PUBCHEM_XLOGP3_AA>
5.5

> <PUBCHEM_EXACT_MASS>
564.12898299

> <PUBCHEM_MOLECULAR_FORMULA>
C31H24N4O3S2

> <PUBCHEM_MOLECULAR_WEIGHT>
564.7

> <PUBCHEM_SMILES>
C1=CC=C(C=C1)C(=O)C2=C(C(=O)NC2=O)C3=C(N(C4=CC=CC=C43)CCCSC(=N)N)C5=CC6=CC=CC=C6S5

> <PUBCHEM_OPENEYE_CAN_SMILES>
C1=CC=C(C=C1)C(=O)C2=C(C(=O)NC2=O)C3=C(N(C4=CC=CC=C43)CCCSC(=N)N)C5=CC6=CC=CC=C6S5

> <PUBCHEM_OPENEYE_ISO_SMILES>
C1=CC=C(C=C1)C(=O)C2=C(C(=O)NC2=O)C3=C(N(C4=CC=CC=C43)CCCSC(=N)N)C5=CC6=CC=CC=C6S5

> <PUBCHEM_CACTVS_TPSA>
172

> <PUBCHEM_MONOISOTOPIC_WEIGHT>
564.12898299

> <PUBCHEM_TOTAL_CHARGE>
0

> <PUBCHEM_HEAVY_ATOM_COUNT>
40

> <PUBCHEM_ATOM_DEF_STEREO_COUNT>
0

> <PUBCHEM_ATOM_UDEF_STEREO_COUNT>
0

> <PUBCHEM_BOND_DEF_STEREO_COUNT>
0

> <PUBCHEM_BOND_UDEF_STEREO_COUNT>
0

> <PUBCHEM_ISOTOPIC_ATOM_COUNT>
0

> <PUBCHEM_COMPONENT_COUNT>
1

> <PUBCHEM_CACTVS_TAUTO_COUNT>
-1

> <PUBCHEM_COORDINATE_TYPE>
1
5
255

> <PUBCHEM_BONDANNOTATIONS>
1  16  8
1  27  8
10  11  8
11  13  8
12  13  8
12  18  8
13  19  8
16  21  8
18  23  8
19  25  8
21  26  8
23  25  8
26  27  8
26  30  8
27  31  8
30  33  8
31  34  8
32  35  8
32  36  8
33  34  8
35  38  8
36  39  8
38  40  8
39  40  8
6  10  8
6  12  8

$$$$
