49830780
  -OEChem-03202501412D

 63 67  0     0  0  0  0  0  0999 V2000
    3.7320   -5.3076    0.0000 F   0  0  0  0  0  0  0  0  0  0  0  0
    2.0000   -2.3076    0.0000 F   0  0  0  0  0  0  0  0  0  0  0  0
   12.2546   -0.9336    0.0000 O   0  0  0  0  0  0  0  0  0  0  0  0
   10.9654   -2.0904    0.0000 O   0  0  0  0  0  0  0  0  0  0  0  0
   11.5402    2.4560    0.0000 N   0  0  0  0  0  0  0  0  0  0  0  0
   12.1615    4.3570    0.0000 N   0  0  0  0  0  0  0  0  0  0  0  0
    9.3191   -1.5523    0.0000 N   0  0  0  0  0  0  0  0  0  0  0  0
    9.0084   -4.1123    0.0000 N   0  0  0  0  0  0  0  0  0  0  0  0
    9.5920   -3.3076    0.0000 N   0  0  0  0  0  0  0  0  0  0  0  0
   12.5187    2.6622    0.0000 C   0  0  0  0  0  0  0  0  0  0  0  0
   10.8724    3.2003    0.0000 C   0  0  0  0  0  0  0  0  0  0  0  0
   12.8294    3.6127    0.0000 C   0  0  0  0  0  0  0  0  0  0  0  0
   11.1830    4.1508    0.0000 C   0  0  0  0  0  0  0  0  0  0  0  0
   11.2296    1.5055    0.0000 C   0  0  0  0  0  0  0  0  0  0  0  0
   12.4722    5.3076    0.0000 C   0  0  0  0  0  0  0  0  0  0  0  0
   11.8974    0.7612    0.0000 C   0  0  0  0  0  0  0  0  0  0  0  0
   10.2510    1.2993    0.0000 C   0  0  0  0  0  0  0  0  0  0  0  0
   11.5867   -0.1893    0.0000 C   0  0  0  0  0  0  0  0  0  0  0  0
   10.6082   -0.3956    0.0000 C   0  0  0  0  0  0  0  0  0  0  0  0
    9.9404    0.3487    0.0000 C   0  0  0  0  0  0  0  0  0  0  0  0
    8.0622   -2.8076    0.0000 C   0  0  0  0  0  0  0  0  0  0  0  0
   10.2976   -1.3461    0.0000 C   0  0  0  0  0  0  0  0  0  0  0  0
    9.0084   -2.5028    0.0000 C   0  0  0  0  0  0  0  0  0  0  0  0
    8.0622   -3.8076    0.0000 C   0  0  0  0  0  0  0  0  0  0  0  0
    6.3301   -2.8076    0.0000 C   0  0  0  0  0  0  0  0  0  0  0  0
    7.1962   -2.3076    0.0000 C   0  0  0  0  0  0  0  0  0  0  0  0
    5.4641   -2.3076    0.0000 C   0  0  0  0  0  0  0  0  0  0  0  0
    6.3301   -3.8076    0.0000 C   0  0  0  0  0  0  0  0  0  0  0  0
    7.1962   -4.3076    0.0000 C   0  0  0  0  0  0  0  0  0  0  0  0
    4.5981   -2.8076    0.0000 C   0  0  0  0  0  0  0  0  0  0  0  0
   13.2331   -0.7274    0.0000 C   0  0  0  0  0  0  0  0  0  0  0  0
    3.7320   -2.3076    0.0000 C   0  0  0  0  0  0  0  0  0  0  0  0
    4.5981   -3.8076    0.0000 C   0  0  0  0  0  0  0  0  0  0  0  0
    3.7320   -4.3076    0.0000 C   0  0  0  0  0  0  0  0  0  0  0  0
    2.8660   -2.8076    0.0000 C   0  0  0  0  0  0  0  0  0  0  0  0
    2.8660   -3.8076    0.0000 C   0  0  0  0  0  0  0  0  0  0  0  0
   12.5393    2.0426    0.0000 H   0  0  0  0  0  0  0  0  0  0  0  0
   13.1325    2.5749    0.0000 H   0  0  0  0  0  0  0  0  0  0  0  0
   10.3254    3.4923    0.0000 H   0  0  0  0  0  0  0  0  0  0  0  0
   10.4898    2.7124    0.0000 H   0  0  0  0  0  0  0  0  0  0  0  0
   13.3763    3.3207    0.0000 H   0  0  0  0  0  0  0  0  0  0  0  0
   13.2119    4.1006    0.0000 H   0  0  0  0  0  0  0  0  0  0  0  0
   11.1625    4.7705    0.0000 H   0  0  0  0  0  0  0  0  0  0  0  0
   10.5692    4.2382    0.0000 H   0  0  0  0  0  0  0  0  0  0  0  0
   13.0615    5.1150    0.0000 H   0  0  0  0  0  0  0  0  0  0  0  0
   12.6648    5.8969    0.0000 H   0  0  0  0  0  0  0  0  0  0  0  0
   11.8829    5.5002    0.0000 H   0  0  0  0  0  0  0  0  0  0  0  0
   12.5041    0.8890    0.0000 H   0  0  0  0  0  0  0  0  0  0  0  0
    9.8370    1.7607    0.0000 H   0  0  0  0  0  0  0  0  0  0  0  0
    9.3337    0.2209    0.0000 H   0  0  0  0  0  0  0  0  0  0  0  0
    7.1962   -1.6876    0.0000 H   0  0  0  0  0  0  0  0  0  0  0  0
    8.9050   -1.0908    0.0000 H   0  0  0  0  0  0  0  0  0  0  0  0
    5.8626   -1.8326    0.0000 H   0  0  0  0  0  0  0  0  0  0  0  0
    5.0656   -1.8326    0.0000 H   0  0  0  0  0  0  0  0  0  0  0  0
    5.7932   -4.1176    0.0000 H   0  0  0  0  0  0  0  0  0  0  0  0
    7.1962   -4.9276    0.0000 H   0  0  0  0  0  0  0  0  0  0  0  0
    9.2010   -4.7016    0.0000 H   0  0  0  0  0  0  0  0  0  0  0  0
   13.3609   -1.3341    0.0000 H   0  0  0  0  0  0  0  0  0  0  0  0
   13.8398   -0.5996    0.0000 H   0  0  0  0  0  0  0  0  0  0  0  0
   13.1052   -0.1208    0.0000 H   0  0  0  0  0  0  0  0  0  0  0  0
    3.7320   -1.6876    0.0000 H   0  0  0  0  0  0  0  0  0  0  0  0
    5.1350   -4.1176    0.0000 H   0  0  0  0  0  0  0  0  0  0  0  0
    2.3291   -4.1176    0.0000 H   0  0  0  0  0  0  0  0  0  0  0  0
  1 34  1  0  0  0  0
  2 35  1  0  0  0  0
  3 18  1  0  0  0  0
  3 31  1  0  0  0  0
  4 22  2  0  0  0  0
  5 10  1  0  0  0  0
  5 11  1  0  0  0  0
  5 14  1  0  0  0  0
  6 12  1  0  0  0  0
  6 13  1  0  0  0  0
  6 15  1  0  0  0  0
  7 22  1  0  0  0  0
  7 23  1  0  0  0  0
  7 52  1  0  0  0  0
  8  9  1  0  0  0  0
  8 24  1  0  0  0  0
  8 57  1  0  0  0  0
  9 23  2  0  0  0  0
 10 12  1  0  0  0  0
 10 37  1  0  0  0  0
 10 38  1  0  0  0  0
 11 13  1  0  0  0  0
 11 39  1  0  0  0  0
 11 40  1  0  0  0  0
 12 41  1  0  0  0  0
 12 42  1  0  0  0  0
 13 43  1  0  0  0  0
 13 44  1  0  0  0  0
 14 16  2  0  0  0  0
 14 17  1  0  0  0  0
 15 45  1  0  0  0  0
 15 46  1  0  0  0  0
 15 47  1  0  0  0  0
 16 18  1  0  0  0  0
 16 48  1  0  0  0  0
 17 20  2  0  0  0  0
 17 49  1  0  0  0  0
 18 19  2  0  0  0  0
 19 20  1  0  0  0  0
 19 22  1  0  0  0  0
 20 50  1  0  0  0  0
 21 23  1  0  0  0  0
 21 24  2  0  0  0  0
 21 26  1  0  0  0  0
 24 29  1  0  0  0  0
 25 26  2  0  0  0  0
 25 27  1  0  0  0  0
 25 28  1  0  0  0  0
 26 51  1  0  0  0  0
 27 30  1  0  0  0  0
 27 53  1  0  0  0  0
 27 54  1  0  0  0  0
 28 29  2  0  0  0  0
 28 55  1  0  0  0  0
 29 56  1  0  0  0  0
 30 32  2  0  0  0  0
 30 33  1  0  0  0  0
 31 58  1  0  0  0  0
 31 59  1  0  0  0  0
 31 60  1  0  0  0  0
 32 35  1  0  0  0  0
 32 61  1  0  0  0  0
 33 34  2  0  0  0  0
 33 62  1  0  0  0  0
 34 36  1  0  0  0  0
 35 36  2  0  0  0  0
 36 63  1  0  0  0  0
M  END
> <PUBCHEM_COMPOUND_CID>
49830780

> <PUBCHEM_COMPOUND_CANONICALIZED>
1

> <PUBCHEM_CACTVS_COMPLEXITY>
729

> <PUBCHEM_CACTVS_HBOND_ACCEPTOR>
7

> <PUBCHEM_CACTVS_HBOND_DONOR>
2

> <PUBCHEM_CACTVS_ROTATABLE_BOND>
6

> <PUBCHEM_CACTVS_SUBSKEYS>
AAADceB7sYAAAAAAAAAAAAAAAAAAAWAAAAA8YMEAAAAAAFgB9AAAHwAYAAAADAzBng4z9vPjBACqAydycACSDAIlIgAduSE+bNiMZrbE/duUtWh2/RvI6YeY2eOeCAACAgAKAAAQAAQEABQAAAAAAAAAAA==

> <PUBCHEM_IUPAC_OPENEYE_NAME>
N-[5-[(3,5-difluorophenyl)methyl]-1H-indazol-3-yl]-2-methoxy-4-(4-methylpiperazin-1-yl)benzamide

> <PUBCHEM_IUPAC_CAS_NAME>
N-[5-[(3,5-difluorophenyl)methyl]-1H-indazol-3-yl]-2-methoxy-4-(4-methyl-1-piperazinyl)benzamide

> <PUBCHEM_IUPAC_NAME_MARKUP>
<I>N</I>-[5-[(3,5-difluorophenyl)methyl]-1<I>H</I>-indazol-3-yl]-2-methoxy-4-(4-methylpiperazin-1-yl)benzamide

> <PUBCHEM_IUPAC_NAME>
N-[5-[(3,5-difluorophenyl)methyl]-1H-indazol-3-yl]-2-methoxy-4-(4-methylpiperazin-1-yl)benzamide

> <PUBCHEM_IUPAC_SYSTEMATIC_NAME>
N-[5-[[3,5-bis(fluoranyl)phenyl]methyl]-1H-indazol-3-yl]-2-methoxy-4-(4-methylpiperazin-1-yl)benzamide

> <PUBCHEM_IUPAC_TRADITIONAL_NAME>
N-[5-(3,5-difluorobenzyl)-1H-indazol-3-yl]-2-methoxy-4-(4-methylpiperazino)benzamide

> <PUBCHEM_IUPAC_INCHI>
InChI=1S/C27H27F2N5O2/c1-33-7-9-34(10-8-33)21-4-5-22(25(16-21)36-2)27(35)30-26-23-14-17(3-6-24(23)31-32-26)11-18-12-19(28)15-20(29)13-18/h3-6,12-16H,7-11H2,1-2H3,(H2,30,31,32,35)

> <PUBCHEM_IUPAC_INCHIKEY>
DSSRVQAIWBZWON-UHFFFAOYSA-N

> <PUBCHEM_XLOGP3_AA>
4.7

> <PUBCHEM_EXACT_MASS>
491.21328145

> <PUBCHEM_MOLECULAR_FORMULA>
C27H27F2N5O2

> <PUBCHEM_MOLECULAR_WEIGHT>
491.5

> <PUBCHEM_SMILES>
CN1CCN(CC1)C2=CC(=C(C=C2)C(=O)NC3=NNC4=C3C=C(C=C4)CC5=CC(=CC(=C5)F)F)OC

> <PUBCHEM_OPENEYE_CAN_SMILES>
CN1CCN(CC1)C2=CC(=C(C=C2)C(=O)NC3=NNC4=C3C=C(C=C4)CC5=CC(=CC(=C5)F)F)OC

> <PUBCHEM_OPENEYE_ISO_SMILES>
CN1CCN(CC1)C2=CC(=C(C=C2)C(=O)NC3=NNC4=C3C=C(C=C4)CC5=CC(=CC(=C5)F)F)OC

> <PUBCHEM_CACTVS_TPSA>
73.5

> <PUBCHEM_MONOISOTOPIC_WEIGHT>
491.21328145

> <PUBCHEM_TOTAL_CHARGE>
0

> <PUBCHEM_HEAVY_ATOM_COUNT>
36

> <PUBCHEM_ATOM_DEF_STEREO_COUNT>
0

> <PUBCHEM_ATOM_UDEF_STEREO_COUNT>
0

> <PUBCHEM_BOND_DEF_STEREO_COUNT>
0

> <PUBCHEM_BOND_UDEF_STEREO_COUNT>
0

> <PUBCHEM_ISOTOPIC_ATOM_COUNT>
0

> <PUBCHEM_COMPONENT_COUNT>
1

> <PUBCHEM_CACTVS_TAUTO_COUNT>
-1

> <PUBCHEM_COORDINATE_TYPE>
1
5
255

> <PUBCHEM_BONDANNOTATIONS>
14  16  8
14  17  8
16  18  8
17  20  8
18  19  8
19  20  8
21  23  8
21  24  8
21  26  8
24  29  8
25  26  8
25  28  8
28  29  8
30  32  8
30  33  8
32  35  8
33  34  8
34  36  8
35  36  8
8  24  8
8  9  8
9  23  8

$$$$
