49830635
  -OEChem-03202504272D

 49 52  0     0  0  0  0  0  0999 V2000
   10.0903   -1.6825    0.0000 N   0  0  0  0  0  0  0  0  0  0  0  0
   11.0844   -1.6816    0.0000 N   0  0  0  0  0  0  0  0  0  0  0  0
    3.6493    0.4919    0.0000 N   0  0  0  0  0  0  0  0  0  0  0  0
   14.0376   -0.7921    0.0000 N   0  0  0  0  0  0  0  0  0  0  0  0
   16.1504    0.8004    0.0000 N   0  0  0  0  0  0  0  0  0  0  0  0
   10.5897   -0.1501    0.0000 C   0  0  0  0  0  0  0  0  0  0  0  0
   10.2807    0.8010    0.0000 C   0  0  0  0  0  0  0  0  0  0  0  0
    9.7807   -0.7378    0.0000 C   0  0  0  0  0  0  0  0  0  0  0  0
    9.2807    0.8010    0.0000 C   0  0  0  0  0  0  0  0  0  0  0  0
    8.9717   -0.1501    0.0000 C   0  0  0  0  0  0  0  0  0  0  0  0
   11.3924   -0.7365    0.0000 C   0  0  0  0  0  0  0  0  0  0  0  0
    7.9563   -0.3823    0.0000 C   0  0  0  0  0  0  0  0  0  0  0  0
    8.5957    1.5857    0.0000 C   0  0  0  0  0  0  0  0  0  0  0  0
    7.2533    0.3864    0.0000 C   0  0  0  0  0  0  0  0  0  0  0  0
   12.3440   -0.4291    0.0000 C   0  0  0  0  0  0  0  0  0  0  0  0
    7.5752    1.3770    0.0000 C   0  0  0  0  0  0  0  0  0  0  0  0
   12.5536    0.5487    0.0000 C   0  0  0  0  0  0  0  0  0  0  0  0
   13.0860   -1.0995    0.0000 C   0  0  0  0  0  0  0  0  0  0  0  0
    4.3213   -0.2487    0.0000 C   0  0  0  0  0  0  0  0  0  0  0  0
    2.6720    0.2802    0.0000 C   0  0  0  0  0  0  0  0  0  0  0  0
    3.9547    1.4441    0.0000 C   0  0  0  0  0  0  0  0  0  0  0  0
    6.2760    0.1747    0.0000 C   0  0  0  0  0  0  0  0  0  0  0  0
    5.2987   -0.0370    0.0000 C   0  0  0  0  0  0  0  0  0  0  0  0
   13.5052    0.8561    0.0000 C   0  0  0  0  0  0  0  0  0  0  0  0
    2.0000    1.0208    0.0000 C   0  0  0  0  0  0  0  0  0  0  0  0
    3.2827    2.1847    0.0000 C   0  0  0  0  0  0  0  0  0  0  0  0
   14.2472    0.1857    0.0000 C   0  0  0  0  0  0  0  0  0  0  0  0
   15.1988    0.4930    0.0000 C   0  0  0  0  0  0  0  0  0  0  0  0
   10.8871    0.9299    0.0000 H   0  0  0  0  0  0  0  0  0  0  0  0
   10.2159    1.4176    0.0000 H   0  0  0  0  0  0  0  0  0  0  0  0
    9.7268   -2.1847    0.0000 H   0  0  0  0  0  0  0  0  0  0  0  0
    7.7715   -0.9741    0.0000 H   0  0  0  0  0  0  0  0  0  0  0  0
    8.7941    2.1731    0.0000 H   0  0  0  0  0  0  0  0  0  0  0  0
    7.1621    1.8394    0.0000 H   0  0  0  0  0  0  0  0  0  0  0  0
   12.0936    0.9644    0.0000 H   0  0  0  0  0  0  0  0  0  0  0  0
    3.7968   -0.5792    0.0000 H   0  0  0  0  0  0  0  0  0  0  0  0
    4.5558   -0.8226    0.0000 H   0  0  0  0  0  0  0  0  0  0  0  0
   12.9560   -1.7057    0.0000 H   0  0  0  0  0  0  0  0  0  0  0  0
    2.1475   -0.0504    0.0000 H   0  0  0  0  0  0  0  0  0  0  0  0
    2.9065   -0.2937    0.0000 H   0  0  0  0  0  0  0  0  0  0  0  0
    4.5032    1.1552    0.0000 H   0  0  0  0  0  0  0  0  0  0  0  0
    4.3345    1.9342    0.0000 H   0  0  0  0  0  0  0  0  0  0  0  0
   13.6352    1.4623    0.0000 H   0  0  0  0  0  0  0  0  0  0  0  0
    2.4592    1.4374    0.0000 H   0  0  0  0  0  0  0  0  0  0  0  0
    1.5834    1.4799    0.0000 H   0  0  0  0  0  0  0  0  0  0  0  0
    1.5408    0.6041    0.0000 H   0  0  0  0  0  0  0  0  0  0  0  0
    3.7418    2.6013    0.0000 H   0  0  0  0  0  0  0  0  0  0  0  0
    2.8660    2.6438    0.0000 H   0  0  0  0  0  0  0  0  0  0  0  0
    2.8235    1.7681    0.0000 H   0  0  0  0  0  0  0  0  0  0  0  0
  1  2  1  0  0  0  0
  1  8  1  0  0  0  0
  1 31  1  0  0  0  0
  2 11  2  0  0  0  0
  3 19  1  0  0  0  0
  3 20  1  0  0  0  0
  3 21  1  0  0  0  0
  4 18  1  0  0  0  0
  4 27  2  0  0  0  0
  5 28  3  0  0  0  0
  6  7  1  0  0  0  0
  6  8  2  0  0  0  0
  6 11  1  0  0  0  0
  7  9  1  0  0  0  0
  7 29  1  0  0  0  0
  7 30  1  0  0  0  0
  8 10  1  0  0  0  0
  9 10  2  0  0  0  0
  9 13  1  0  0  0  0
 10 12  1  0  0  0  0
 11 15  1  0  0  0  0
 12 14  2  0  0  0  0
 12 32  1  0  0  0  0
 13 16  2  0  0  0  0
 13 33  1  0  0  0  0
 14 16  1  0  0  0  0
 14 22  1  0  0  0  0
 15 17  1  0  0  0  0
 15 18  2  0  0  0  0
 16 34  1  0  0  0  0
 17 24  2  0  0  0  0
 17 35  1  0  0  0  0
 18 38  1  0  0  0  0
 19 23  1  0  0  0  0
 19 36  1  0  0  0  0
 19 37  1  0  0  0  0
 20 25  1  0  0  0  0
 20 39  1  0  0  0  0
 20 40  1  0  0  0  0
 21 26  1  0  0  0  0
 21 41  1  0  0  0  0
 21 42  1  0  0  0  0
 22 23  3  0  0  0  0
 24 27  1  0  0  0  0
 24 43  1  0  0  0  0
 25 44  1  0  0  0  0
 25 45  1  0  0  0  0
 25 46  1  0  0  0  0
 26 47  1  0  0  0  0
 26 48  1  0  0  0  0
 26 49  1  0  0  0  0
 27 28  1  0  0  0  0
M  END
> <PUBCHEM_COMPOUND_CID>
49830635

> <PUBCHEM_COMPOUND_CANONICALIZED>
1

> <PUBCHEM_CACTVS_COMPLEXITY>
650

> <PUBCHEM_CACTVS_HBOND_ACCEPTOR>
4

> <PUBCHEM_CACTVS_HBOND_DONOR>
1

> <PUBCHEM_CACTVS_ROTATABLE_BOND>
5

> <PUBCHEM_CACTVS_SUBSKEYS>
AAADceB7gAAAAAAAAAAAAAAAAAAAAeIAAAA8QAAAAAAWAGAB8AAAHAAYAAAADAjBHgQ+gJNrEADyFzRnRAiyhCAxAiAY+SA4ZJgIoOLA0dGEpAhgiADIyA8QgMAOwAACAAAQAACAAAQAACAAASAACQAAAA==

> <PUBCHEM_IUPAC_OPENEYE_NAME>
5-[7-[3-(diethylamino)prop-1-ynyl]-1,4-dihydroindeno[1,2-c]pyrazol-3-yl]pyridine-2-carbonitrile

> <PUBCHEM_IUPAC_CAS_NAME>
5-[7-[3-(diethylamino)prop-1-ynyl]-1,4-dihydroindeno[1,2-c]pyrazol-3-yl]-2-pyridinecarbonitrile

> <PUBCHEM_IUPAC_NAME_MARKUP>
5-[7-[3-(diethylamino)prop-1-ynyl]-1,4-dihydroindeno[1,2-c]pyrazol-3-yl]pyridine-2-carbonitrile

> <PUBCHEM_IUPAC_NAME>
5-[7-[3-(diethylamino)prop-1-ynyl]-1,4-dihydroindeno[1,2-c]pyrazol-3-yl]pyridine-2-carbonitrile

> <PUBCHEM_IUPAC_SYSTEMATIC_NAME>
5-[7-[3-(diethylamino)prop-1-ynyl]-1,4-dihydroindeno[1,2-c]pyrazol-3-yl]pyridine-2-carbonitrile

> <PUBCHEM_IUPAC_TRADITIONAL_NAME>
5-[7-[3-(diethylamino)prop-1-ynyl]-1,4-dihydroindeno[1,2-c]pyrazol-3-yl]picolinonitrile

> <PUBCHEM_IUPAC_INCHI>
InChI=1S/C23H21N5/c1-3-28(4-2)11-5-6-16-7-8-17-13-21-22(26-27-23(21)20(17)12-16)18-9-10-19(14-24)25-15-18/h7-10,12,15H,3-4,11,13H2,1-2H3,(H,26,27)

> <PUBCHEM_IUPAC_INCHIKEY>
NLDZIKOJZCTRAZ-UHFFFAOYSA-N

> <PUBCHEM_XLOGP3_AA>
3.5

> <PUBCHEM_EXACT_MASS>
367.17969569

> <PUBCHEM_MOLECULAR_FORMULA>
C23H21N5

> <PUBCHEM_MOLECULAR_WEIGHT>
367.4

> <PUBCHEM_SMILES>
CCN(CC)CC#CC1=CC2=C(CC3=C2NN=C3C4=CN=C(C=C4)C#N)C=C1

> <PUBCHEM_OPENEYE_CAN_SMILES>
CCN(CC)CC#CC1=CC2=C(CC3=C2NN=C3C4=CN=C(C=C4)C#N)C=C1

> <PUBCHEM_OPENEYE_ISO_SMILES>
CCN(CC)CC#CC1=CC2=C(CC3=C2NN=C3C4=CN=C(C=C4)C#N)C=C1

> <PUBCHEM_CACTVS_TPSA>
68.6

> <PUBCHEM_MONOISOTOPIC_WEIGHT>
367.17969569

> <PUBCHEM_TOTAL_CHARGE>
0

> <PUBCHEM_HEAVY_ATOM_COUNT>
28

> <PUBCHEM_ATOM_DEF_STEREO_COUNT>
0

> <PUBCHEM_ATOM_UDEF_STEREO_COUNT>
0

> <PUBCHEM_BOND_DEF_STEREO_COUNT>
0

> <PUBCHEM_BOND_UDEF_STEREO_COUNT>
0

> <PUBCHEM_ISOTOPIC_ATOM_COUNT>
0

> <PUBCHEM_COMPONENT_COUNT>
1

> <PUBCHEM_CACTVS_TAUTO_COUNT>
-1

> <PUBCHEM_COORDINATE_TYPE>
1
5
255

> <PUBCHEM_BONDANNOTATIONS>
1  2  8
1  8  8
10  12  8
12  14  8
13  16  8
14  16  8
15  17  8
15  18  8
17  24  8
2  11  8
24  27  8
4  18  8
4  27  8
6  11  8
6  8  8
9  10  8
9  13  8

$$$$
