49830885
  -OEChem-03202501132D

 58 61  0     0  0  0  0  0  0999 V2000
    3.1200    3.7742    0.0000 S   0  0  0  0  0  0  0  0  0  0  0  0
   13.2854   -3.2762    0.0000 O   0  0  0  0  0  0  0  0  0  0  0  0
    7.8271   -2.6466    0.0000 O   0  0  0  0  0  0  0  0  0  0  0  0
    5.4952   -2.0218    0.0000 O   0  0  0  0  0  0  0  0  0  0  0  0
   11.6391   -3.8142    0.0000 O   0  0  0  0  0  0  0  0  0  0  0  0
    2.2540    3.2742    0.0000 O   0  0  0  0  0  0  0  0  0  0  0  0
    3.9860    4.2742    0.0000 O   0  0  0  0  0  0  0  0  0  0  0  0
    8.4520   -0.3147    0.0000 N   0  0  0  0  0  0  0  0  0  0  0  0
   11.9962   -2.1194    0.0000 N   0  0  0  0  0  0  0  0  0  0  0  0
    6.1200    0.3101    0.0000 N   0  0  0  0  0  0  0  0  0  0  0  0
   12.5799   -1.3147    0.0000 N   0  0  0  0  0  0  0  0  0  0  0  0
    2.6200    4.6403    0.0000 N   0  0  0  0  0  0  0  0  0  0  0  0
   13.5961   -4.2267    0.0000 C   0  0  0  0  0  0  0  0  0  0  0  0
    7.5859   -0.8147    0.0000 C   0  0  0  0  0  0  0  0  0  0  0  0
    6.6200   -0.5559    0.0000 C   0  0  0  0  0  0  0  0  0  0  0  0
   11.0500   -1.8147    0.0000 C   0  0  0  0  0  0  0  0  0  0  0  0
   11.0500   -0.8147    0.0000 C   0  0  0  0  0  0  0  0  0  0  0  0
    9.3180   -0.8147    0.0000 C   0  0  0  0  0  0  0  0  0  0  0  0
    5.1200    0.3101    0.0000 C   0  0  0  0  0  0  0  0  0  0  0  0
   10.1840   -0.3147    0.0000 C   0  0  0  0  0  0  0  0  0  0  0  0
    7.3271   -1.7806    0.0000 C   0  0  0  0  0  0  0  0  0  0  0  0
    6.3612   -1.5218    0.0000 C   0  0  0  0  0  0  0  0  0  0  0  0
   13.9067   -5.1772    0.0000 C   0  0  0  0  0  0  0  0  0  0  0  0
   14.5466   -3.9160    0.0000 C   0  0  0  0  0  0  0  0  0  0  0  0
   12.6456   -4.5374    0.0000 C   0  0  0  0  0  0  0  0  0  0  0  0
   10.1840   -2.3147    0.0000 C   0  0  0  0  0  0  0  0  0  0  0  0
    9.3180   -1.8147    0.0000 C   0  0  0  0  0  0  0  0  0  0  0  0
    4.6200    1.1762    0.0000 C   0  0  0  0  0  0  0  0  0  0  0  0
   12.3069   -3.0700    0.0000 C   0  0  0  0  0  0  0  0  0  0  0  0
   11.9962   -0.5100    0.0000 C   0  0  0  0  0  0  0  0  0  0  0  0
    5.1200    2.0422    0.0000 C   0  0  0  0  0  0  0  0  0  0  0  0
    3.6200    1.1762    0.0000 C   0  0  0  0  0  0  0  0  0  0  0  0
    3.6200    2.9082    0.0000 C   0  0  0  0  0  0  0  0  0  0  0  0
    4.6200    2.9082    0.0000 C   0  0  0  0  0  0  0  0  0  0  0  0
    3.1200    2.0422    0.0000 C   0  0  0  0  0  0  0  0  0  0  0  0
    8.4520    0.3053    0.0000 H   0  0  0  0  0  0  0  0  0  0  0  0
    4.5374    0.0981    0.0000 H   0  0  0  0  0  0  0  0  0  0  0  0
    5.2277   -0.3004    0.0000 H   0  0  0  0  0  0  0  0  0  0  0  0
   10.1840    0.3053    0.0000 H   0  0  0  0  0  0  0  0  0  0  0  0
    6.4300    0.8471    0.0000 H   0  0  0  0  0  0  0  0  0  0  0  0
   13.3174   -5.3698    0.0000 H   0  0  0  0  0  0  0  0  0  0  0  0
   14.0994   -5.7665    0.0000 H   0  0  0  0  0  0  0  0  0  0  0  0
   14.4961   -4.9846    0.0000 H   0  0  0  0  0  0  0  0  0  0  0  0
   14.7392   -4.5054    0.0000 H   0  0  0  0  0  0  0  0  0  0  0  0
   15.1359   -3.7234    0.0000 H   0  0  0  0  0  0  0  0  0  0  0  0
   14.3540   -3.3267    0.0000 H   0  0  0  0  0  0  0  0  0  0  0  0
   12.4529   -3.9480    0.0000 H   0  0  0  0  0  0  0  0  0  0  0  0
   12.0562   -4.7300    0.0000 H   0  0  0  0  0  0  0  0  0  0  0  0
   12.8382   -5.1267    0.0000 H   0  0  0  0  0  0  0  0  0  0  0  0
   10.1840   -2.9347    0.0000 H   0  0  0  0  0  0  0  0  0  0  0  0
    8.7810   -2.1247    0.0000 H   0  0  0  0  0  0  0  0  0  0  0  0
   12.1889    0.0794    0.0000 H   0  0  0  0  0  0  0  0  0  0  0  0
    5.7400    2.0422    0.0000 H   0  0  0  0  0  0  0  0  0  0  0  0
    3.3100    0.6392    0.0000 H   0  0  0  0  0  0  0  0  0  0  0  0
    4.9300    3.4452    0.0000 H   0  0  0  0  0  0  0  0  0  0  0  0
    2.5000    2.0422    0.0000 H   0  0  0  0  0  0  0  0  0  0  0  0
    2.0000    4.6403    0.0000 H   0  0  0  0  0  0  0  0  0  0  0  0
    2.9300    5.1772    0.0000 H   0  0  0  0  0  0  0  0  0  0  0  0
  1  6  2  0  0  0  0
  1  7  2  0  0  0  0
  1 12  1  0  0  0  0
  1 33  1  0  0  0  0
  2 13  1  0  0  0  0
  2 29  1  0  0  0  0
  3 21  2  0  0  0  0
  4 22  2  0  0  0  0
  5 29  2  0  0  0  0
  8 14  1  0  0  0  0
  8 18  1  0  0  0  0
  8 36  1  0  0  0  0
  9 11  1  0  0  0  0
  9 16  1  0  0  0  0
  9 29  1  0  0  0  0
 10 15  1  0  0  0  0
 10 19  1  0  0  0  0
 10 40  1  0  0  0  0
 11 30  2  0  0  0  0
 12 57  1  0  0  0  0
 12 58  1  0  0  0  0
 13 23  1  0  0  0  0
 13 24  1  0  0  0  0
 13 25  1  0  0  0  0
 14 15  2  0  0  0  0
 14 21  1  0  0  0  0
 15 22  1  0  0  0  0
 16 17  2  0  0  0  0
 16 26  1  0  0  0  0
 17 20  1  0  0  0  0
 17 30  1  0  0  0  0
 18 20  2  0  0  0  0
 18 27  1  0  0  0  0
 19 28  1  0  0  0  0
 19 37  1  0  0  0  0
 19 38  1  0  0  0  0
 20 39  1  0  0  0  0
 21 22  1  0  0  0  0
 23 41  1  0  0  0  0
 23 42  1  0  0  0  0
 23 43  1  0  0  0  0
 24 44  1  0  0  0  0
 24 45  1  0  0  0  0
 24 46  1  0  0  0  0
 25 47  1  0  0  0  0
 25 48  1  0  0  0  0
 25 49  1  0  0  0  0
 26 27  2  0  0  0  0
 26 50  1  0  0  0  0
 27 51  1  0  0  0  0
 28 31  2  0  0  0  0
 28 32  1  0  0  0  0
 30 52  1  0  0  0  0
 31 34  1  0  0  0  0
 31 53  1  0  0  0  0
 32 35  2  0  0  0  0
 32 54  1  0  0  0  0
 33 34  2  0  0  0  0
 33 35  1  0  0  0  0
 34 55  1  0  0  0  0
 35 56  1  0  0  0  0
M  END
> <PUBCHEM_COMPOUND_CID>
49830885

> <PUBCHEM_COMPOUND_CANONICALIZED>
1

> <PUBCHEM_CACTVS_COMPLEXITY>
1010

> <PUBCHEM_CACTVS_HBOND_ACCEPTOR>
10

> <PUBCHEM_CACTVS_HBOND_DONOR>
3

> <PUBCHEM_CACTVS_ROTATABLE_BOND>
8

> <PUBCHEM_CACTVS_SUBSKEYS>
AAADceB7uABAAAAAAAAAAAAAAABAAWAAAAAwYAAAAAAAAFgB9AAAHgQYQAAADEzB3gQ+yfLIBAKqA7R3XHDSBBAhggAamLm4ZNgIIKrA0fGMpAhgnADIyUcQgAAOEACAQAACAAAgAQCAAAQAAAAAAAAAAA==

> <PUBCHEM_IUPAC_OPENEYE_NAME>
tert-butyl 5-[[3,4-dioxo-2-[(4-sulfamoylphenyl)methylamino]cyclobuten-1-yl]amino]indazole-1-carboxylate

> <PUBCHEM_IUPAC_CAS_NAME>
5-[[3,4-dioxo-2-[(4-sulfamoylphenyl)methylamino]-1-cyclobutenyl]amino]-1-indazolecarboxylic acid tert-butyl ester

> <PUBCHEM_IUPAC_NAME_MARKUP>
<I>tert</I>-butyl 5-[[3,4-dioxo-2-[(4-sulfamoylphenyl)methylamino]cyclobuten-1-yl]amino]indazole-1-carboxylate

> <PUBCHEM_IUPAC_NAME>
tert-butyl 5-[[3,4-dioxo-2-[(4-sulfamoylphenyl)methylamino]cyclobuten-1-yl]amino]indazole-1-carboxylate

> <PUBCHEM_IUPAC_SYSTEMATIC_NAME>
tert-butyl 5-[[3,4-bis(oxidanylidene)-2-[(4-sulfamoylphenyl)methylamino]cyclobuten-1-yl]amino]indazole-1-carboxylate

> <PUBCHEM_IUPAC_TRADITIONAL_NAME>
5-[[3,4-diketo-2-[(4-sulfamoylbenzyl)amino]cyclobuten-1-yl]amino]indazole-1-carboxylic acid tert-butyl ester

> <PUBCHEM_IUPAC_INCHI>
InChI=1S/C23H23N5O6S/c1-23(2,3)34-22(31)28-17-9-6-15(10-14(17)12-26-28)27-19-18(20(29)21(19)30)25-11-13-4-7-16(8-5-13)35(24,32)33/h4-10,12,25,27H,11H2,1-3H3,(H2,24,32,33)

> <PUBCHEM_IUPAC_INCHIKEY>
KCLZJAVIQDVQCK-UHFFFAOYSA-N

> <PUBCHEM_XLOGP3_AA>
2.5

> <PUBCHEM_EXACT_MASS>
497.13690464

> <PUBCHEM_MOLECULAR_FORMULA>
C23H23N5O6S

> <PUBCHEM_MOLECULAR_WEIGHT>
497.5

> <PUBCHEM_SMILES>
CC(C)(C)OC(=O)N1C2=C(C=C(C=C2)NC3=C(C(=O)C3=O)NCC4=CC=C(C=C4)S(=O)(=O)N)C=N1

> <PUBCHEM_OPENEYE_CAN_SMILES>
CC(C)(C)OC(=O)N1C2=C(C=C(C=C2)NC3=C(C(=O)C3=O)NCC4=CC=C(C=C4)S(=O)(=O)N)C=N1

> <PUBCHEM_OPENEYE_ISO_SMILES>
CC(C)(C)OC(=O)N1C2=C(C=C(C=C2)NC3=C(C(=O)C3=O)NCC4=CC=C(C=C4)S(=O)(=O)N)C=N1

> <PUBCHEM_CACTVS_TPSA>
171

> <PUBCHEM_MONOISOTOPIC_WEIGHT>
497.13690464

> <PUBCHEM_TOTAL_CHARGE>
0

> <PUBCHEM_HEAVY_ATOM_COUNT>
35

> <PUBCHEM_ATOM_DEF_STEREO_COUNT>
0

> <PUBCHEM_ATOM_UDEF_STEREO_COUNT>
0

> <PUBCHEM_BOND_DEF_STEREO_COUNT>
0

> <PUBCHEM_BOND_UDEF_STEREO_COUNT>
0

> <PUBCHEM_ISOTOPIC_ATOM_COUNT>
0

> <PUBCHEM_COMPONENT_COUNT>
1

> <PUBCHEM_CACTVS_TAUTO_COUNT>
-1

> <PUBCHEM_COORDINATE_TYPE>
1
5
255

> <PUBCHEM_BONDANNOTATIONS>
11  30  8
14  15  8
14  21  8
15  22  8
16  17  8
16  26  8
17  20  8
17  30  8
18  20  8
18  27  8
21  22  8
26  27  8
28  31  8
28  32  8
31  34  8
32  35  8
33  34  8
33  35  8
9  11  8
9  16  8

$$$$
