49830662
  -OEChem-03202504072D

 63 66  0     0  0  0  0  0  0999 V2000
    8.4398   -2.4024    0.0000 O   0  0  0  0  0  0  0  0  0  0  0  0
    5.5717    3.2687    0.0000 O   0  0  0  0  0  0  0  0  0  0  0  0
    8.1698    2.7687    0.0000 O   0  0  0  0  0  0  0  0  0  0  0  0
    9.5102   -5.6969    0.0000 O   0  0  0  0  0  0  0  0  0  0  0  0
    7.8160   -5.3368    0.0000 O   0  0  0  0  0  0  0  0  0  0  0  0
    5.4672    0.2742    0.0000 N   0  0  0  0  0  0  0  0  0  0  0  0
    4.4890    0.0663    0.0000 N   0  0  0  0  0  0  0  0  0  0  0  0
    6.4378    1.7687    0.0000 N   0  0  0  0  0  0  0  0  0  0  0  0
    2.9945    1.0368    0.0000 C   0  0  0  0  0  0  0  0  0  0  0  0
    3.9890    0.9323    0.0000 C   0  0  0  0  0  0  0  0  0  0  0  0
    2.0000    1.1413    0.0000 C   0  0  0  0  0  0  0  0  0  0  0  0
    2.8900    0.0423    0.0000 C   0  0  0  0  0  0  0  0  0  0  0  0
    3.0990    2.0313    0.0000 C   0  0  0  0  0  0  0  0  0  0  0  0
    4.6582    1.6754    0.0000 C   0  0  0  0  0  0  0  0  0  0  0  0
    5.5717    1.2687    0.0000 C   0  0  0  0  0  0  0  0  0  0  0  0
    6.2103   -0.3950    0.0000 C   0  0  0  0  0  0  0  0  0  0  0  0
    6.0024   -1.3731    0.0000 C   0  0  0  0  0  0  0  0  0  0  0  0
    7.1614   -0.0859    0.0000 C   0  0  0  0  0  0  0  0  0  0  0  0
    6.4378    2.7687    0.0000 C   0  0  0  0  0  0  0  0  0  0  0  0
    6.7456   -2.0422    0.0000 C   0  0  0  0  0  0  0  0  0  0  0  0
    7.9045   -0.7551    0.0000 C   0  0  0  0  0  0  0  0  0  0  0  0
    7.3038    4.2687    0.0000 C   0  0  0  0  0  0  0  0  0  0  0  0
    7.6966   -1.7332    0.0000 C   0  0  0  0  0  0  0  0  0  0  0  0
    7.3038    3.2687    0.0000 C   0  0  0  0  0  0  0  0  0  0  0  0
    8.1698    4.7687    0.0000 C   0  0  0  0  0  0  0  0  0  0  0  0
    8.1698    5.7687    0.0000 C   0  0  0  0  0  0  0  0  0  0  0  0
    6.4378    4.7687    0.0000 C   0  0  0  0  0  0  0  0  0  0  0  0
    9.0637    4.2340    0.0000 C   0  0  0  0  0  0  0  0  0  0  0  0
    7.3038    6.2687    0.0000 C   0  0  0  0  0  0  0  0  0  0  0  0
    6.4378    5.7687    0.0000 C   0  0  0  0  0  0  0  0  0  0  0  0
    9.0637    6.3034    0.0000 C   0  0  0  0  0  0  0  0  0  0  0  0
    9.9698    4.7479    0.0000 C   0  0  0  0  0  0  0  0  0  0  0  0
    8.2319   -3.3805    0.0000 C   0  0  0  0  0  0  0  0  0  0  0  0
    9.9698    5.7895    0.0000 C   0  0  0  0  0  0  0  0  0  0  0  0
    8.9750   -4.0496    0.0000 C   0  0  0  0  0  0  0  0  0  0  0  0
    8.7671   -5.0278    0.0000 C   0  0  0  0  0  0  0  0  0  0  0  0
    2.0648    1.7580    0.0000 H   0  0  0  0  0  0  0  0  0  0  0  0
    1.3834    1.2062    0.0000 H   0  0  0  0  0  0  0  0  0  0  0  0
    1.9352    0.5247    0.0000 H   0  0  0  0  0  0  0  0  0  0  0  0
    2.2734    0.1071    0.0000 H   0  0  0  0  0  0  0  0  0  0  0  0
    2.8252   -0.5743    0.0000 H   0  0  0  0  0  0  0  0  0  0  0  0
    3.5066   -0.0225    0.0000 H   0  0  0  0  0  0  0  0  0  0  0  0
    3.7156    1.9665    0.0000 H   0  0  0  0  0  0  0  0  0  0  0  0
    3.1639    2.6479    0.0000 H   0  0  0  0  0  0  0  0  0  0  0  0
    2.4824    2.0962    0.0000 H   0  0  0  0  0  0  0  0  0  0  0  0
    4.5293    2.2819    0.0000 H   0  0  0  0  0  0  0  0  0  0  0  0
    6.9747    1.4587    0.0000 H   0  0  0  0  0  0  0  0  0  0  0  0
    5.4128   -1.5647    0.0000 H   0  0  0  0  0  0  0  0  0  0  0  0
    7.2903    0.5205    0.0000 H   0  0  0  0  0  0  0  0  0  0  0  0
    6.6167   -2.6487    0.0000 H   0  0  0  0  0  0  0  0  0  0  0  0
    8.4942   -0.5635    0.0000 H   0  0  0  0  0  0  0  0  0  0  0  0
    5.9008    4.4587    0.0000 H   0  0  0  0  0  0  0  0  0  0  0  0
    9.0566    3.6141    0.0000 H   0  0  0  0  0  0  0  0  0  0  0  0
    7.3038    6.8887    0.0000 H   0  0  0  0  0  0  0  0  0  0  0  0
    5.9008    6.0787    0.0000 H   0  0  0  0  0  0  0  0  0  0  0  0
    9.0566    6.9233    0.0000 H   0  0  0  0  0  0  0  0  0  0  0  0
   10.5055    4.4358    0.0000 H   0  0  0  0  0  0  0  0  0  0  0  0
    7.6570   -3.1482    0.0000 H   0  0  0  0  0  0  0  0  0  0  0  0
    7.9033   -3.9063    0.0000 H   0  0  0  0  0  0  0  0  0  0  0  0
   10.5055    6.1016    0.0000 H   0  0  0  0  0  0  0  0  0  0  0  0
    9.5499   -4.2819    0.0000 H   0  0  0  0  0  0  0  0  0  0  0  0
    9.3036   -3.5238    0.0000 H   0  0  0  0  0  0  0  0  0  0  0  0
    9.3813   -6.3034    0.0000 H   0  0  0  0  0  0  0  0  0  0  0  0
  1 23  1  0  0  0  0
  1 33  1  0  0  0  0
  2 19  2  0  0  0  0
  3 24  2  0  0  0  0
  4 36  1  0  0  0  0
  4 63  1  0  0  0  0
  5 36  2  0  0  0  0
  6  7  1  0  0  0  0
  6 15  1  0  0  0  0
  6 16  1  0  0  0  0
  7 10  2  0  0  0  0
  8 15  1  0  0  0  0
  8 19  1  0  0  0  0
  8 47  1  0  0  0  0
  9 10  1  0  0  0  0
  9 11  1  0  0  0  0
  9 12  1  0  0  0  0
  9 13  1  0  0  0  0
 10 14  1  0  0  0  0
 11 37  1  0  0  0  0
 11 38  1  0  0  0  0
 11 39  1  0  0  0  0
 12 40  1  0  0  0  0
 12 41  1  0  0  0  0
 12 42  1  0  0  0  0
 13 43  1  0  0  0  0
 13 44  1  0  0  0  0
 13 45  1  0  0  0  0
 14 15  2  0  0  0  0
 14 46  1  0  0  0  0
 16 17  2  0  0  0  0
 16 18  1  0  0  0  0
 17 20  1  0  0  0  0
 17 48  1  0  0  0  0
 18 21  2  0  0  0  0
 18 49  1  0  0  0  0
 19 24  1  0  0  0  0
 20 23  2  0  0  0  0
 20 50  1  0  0  0  0
 21 23  1  0  0  0  0
 21 51  1  0  0  0  0
 22 24  1  0  0  0  0
 22 25  1  0  0  0  0
 22 27  2  0  0  0  0
 25 26  1  0  0  0  0
 25 28  2  0  0  0  0
 26 29  1  0  0  0  0
 26 31  2  0  0  0  0
 27 30  1  0  0  0  0
 27 52  1  0  0  0  0
 28 32  1  0  0  0  0
 28 53  1  0  0  0  0
 29 30  2  0  0  0  0
 29 54  1  0  0  0  0
 30 55  1  0  0  0  0
 31 34  1  0  0  0  0
 31 56  1  0  0  0  0
 32 34  2  0  0  0  0
 32 57  1  0  0  0  0
 33 35  1  0  0  0  0
 33 58  1  0  0  0  0
 33 59  1  0  0  0  0
 34 60  1  0  0  0  0
 35 36  1  0  0  0  0
 35 61  1  0  0  0  0
 35 62  1  0  0  0  0
M  END
> <PUBCHEM_COMPOUND_CID>
49830662

> <PUBCHEM_COMPOUND_CANONICALIZED>
1

> <PUBCHEM_CACTVS_COMPLEXITY>
789

> <PUBCHEM_CACTVS_HBOND_ACCEPTOR>
6

> <PUBCHEM_CACTVS_HBOND_DONOR>
2

> <PUBCHEM_CACTVS_ROTATABLE_BOND>
9

> <PUBCHEM_CACTVS_SUBSKEYS>
AAADceB7OAAAAAAAAAAAAAAAAAAAAWAAAAAwYMAAAAAAAADB1AAAHgAYCAAADgyhngIz/tLIBgCqA6fyfACSDCMlIgAdmCG2bNiMJnbE/fuG/Sj9/RPI6ae4yMCPgEACAAAQAAAAgAQAACAAAAAAAAAAAA==

> <PUBCHEM_IUPAC_OPENEYE_NAME>
3-[4-[3-tert-butyl-5-[[2-(1-naphthyl)-2-oxo-acetyl]amino]pyrazol-1-yl]phenoxy]propanoic acid

> <PUBCHEM_IUPAC_CAS_NAME>
3-[4-[3-tert-butyl-5-[[2-(1-naphthalenyl)-1,2-dioxoethyl]amino]-1-pyrazolyl]phenoxy]propanoic acid

> <PUBCHEM_IUPAC_NAME_MARKUP>
3-[4-[3-<I>tert</I>-butyl-5-[(2-naphthalen-1-yl-2-oxoacetyl)amino]pyrazol-1-yl]phenoxy]propanoic acid

> <PUBCHEM_IUPAC_NAME>
3-[4-[3-tert-butyl-5-[(2-naphthalen-1-yl-2-oxoacetyl)amino]pyrazol-1-yl]phenoxy]propanoic acid

> <PUBCHEM_IUPAC_SYSTEMATIC_NAME>
3-[4-[3-tert-butyl-5-[(2-naphthalen-1-yl-2-oxidanylidene-ethanoyl)amino]pyrazol-1-yl]phenoxy]propanoic acid

> <PUBCHEM_IUPAC_TRADITIONAL_NAME>
3-[4-[3-tert-butyl-5-[[2-keto-2-(1-naphthyl)acetyl]amino]pyrazol-1-yl]phenoxy]propionic acid

> <PUBCHEM_IUPAC_INCHI>
InChI=1S/C28H27N3O5/c1-28(2,3)23-17-24(31(30-23)19-11-13-20(14-12-19)36-16-15-25(32)33)29-27(35)26(34)22-10-6-8-18-7-4-5-9-21(18)22/h4-14,17H,15-16H2,1-3H3,(H,29,35)(H,32,33)

> <PUBCHEM_IUPAC_INCHIKEY>
XBDMVBZCUOVOQX-UHFFFAOYSA-N

> <PUBCHEM_XLOGP3_AA>
5.4

> <PUBCHEM_EXACT_MASS>
485.19507097

> <PUBCHEM_MOLECULAR_FORMULA>
C28H27N3O5

> <PUBCHEM_MOLECULAR_WEIGHT>
485.5

> <PUBCHEM_SMILES>
CC(C)(C)C1=NN(C(=C1)NC(=O)C(=O)C2=CC=CC3=CC=CC=C32)C4=CC=C(C=C4)OCCC(=O)O

> <PUBCHEM_OPENEYE_CAN_SMILES>
CC(C)(C)C1=NN(C(=C1)NC(=O)C(=O)C2=CC=CC3=CC=CC=C32)C4=CC=C(C=C4)OCCC(=O)O

> <PUBCHEM_OPENEYE_ISO_SMILES>
CC(C)(C)C1=NN(C(=C1)NC(=O)C(=O)C2=CC=CC3=CC=CC=C32)C4=CC=C(C=C4)OCCC(=O)O

> <PUBCHEM_CACTVS_TPSA>
111

> <PUBCHEM_MONOISOTOPIC_WEIGHT>
485.19507097

> <PUBCHEM_TOTAL_CHARGE>
0

> <PUBCHEM_HEAVY_ATOM_COUNT>
36

> <PUBCHEM_ATOM_DEF_STEREO_COUNT>
0

> <PUBCHEM_ATOM_UDEF_STEREO_COUNT>
0

> <PUBCHEM_BOND_DEF_STEREO_COUNT>
0

> <PUBCHEM_BOND_UDEF_STEREO_COUNT>
0

> <PUBCHEM_ISOTOPIC_ATOM_COUNT>
0

> <PUBCHEM_COMPONENT_COUNT>
1

> <PUBCHEM_CACTVS_TAUTO_COUNT>
-1

> <PUBCHEM_COORDINATE_TYPE>
1
5
255

> <PUBCHEM_BONDANNOTATIONS>
10  14  8
14  15  8
16  17  8
16  18  8
17  20  8
18  21  8
20  23  8
21  23  8
22  25  8
22  27  8
25  26  8
25  28  8
26  29  8
26  31  8
27  30  8
28  32  8
29  30  8
31  34  8
32  34  8
6  15  8
6  7  8
7  10  8

$$$$
