46865419
  -OEChem-03192523202D

 49 53  0     0  0  0  0  0  0999 V2000
    8.2764   -4.8047    0.0000 S   0  0  0  0  0  0  0  0  0  0  0  0
    3.0000    5.0000    0.0000 F   0  0  0  0  0  0  0  0  0  0  0  0
    2.0000    4.0000    0.0000 F   0  0  0  0  0  0  0  0  0  0  0  0
    4.0000    4.0000    0.0000 F   0  0  0  0  0  0  0  0  0  0  0  0
    5.5981    1.5000    0.0000 O   0  0  0  0  0  0  0  0  0  0  0  0
    4.7320    0.0000    0.0000 N   0  0  0  0  0  0  0  0  0  0  0  0
    5.5981   -3.5000    0.0000 N   0  0  0  0  0  0  0  0  0  0  0  0
    6.4641   -5.0000    0.0000 N   0  0  0  0  0  0  0  0  0  0  0  0
   11.8600   -4.0000    0.0000 N   0  0  0  0  0  0  0  0  0  0  0  0
    7.3301   -3.5000    0.0000 C   0  0  0  0  0  0  0  0  0  0  0  0
    6.4641   -3.0000    0.0000 C   0  0  0  0  0  0  0  0  0  0  0  0
    6.4641   -2.0000    0.0000 C   0  0  0  0  0  0  0  0  0  0  0  0
    7.3301   -4.5000    0.0000 C   0  0  0  0  0  0  0  0  0  0  0  0
    8.2764   -3.1953    0.0000 C   0  0  0  0  0  0  0  0  0  0  0  0
    8.8600   -4.0000    0.0000 C   0  0  0  0  0  0  0  0  0  0  0  0
    5.5981   -1.5000    0.0000 C   0  0  0  0  0  0  0  0  0  0  0  0
    5.5981   -0.5000    0.0000 C   0  0  0  0  0  0  0  0  0  0  0  0
    7.3301   -1.5000    0.0000 C   0  0  0  0  0  0  0  0  0  0  0  0
    9.8600   -4.0000    0.0000 C   0  0  0  0  0  0  0  0  0  0  0  0
    6.4641    0.0000    0.0000 C   0  0  0  0  0  0  0  0  0  0  0  0
    7.3301   -0.5000    0.0000 C   0  0  0  0  0  0  0  0  0  0  0  0
    3.8660    1.5000    0.0000 C   0  0  0  0  0  0  0  0  0  0  0  0
    4.7320    1.0000    0.0000 C   0  0  0  0  0  0  0  0  0  0  0  0
    5.5981   -4.5000    0.0000 C   0  0  0  0  0  0  0  0  0  0  0  0
    3.8660    2.5000    0.0000 C   0  0  0  0  0  0  0  0  0  0  0  0
    3.0000    3.0000    0.0000 C   0  0  0  0  0  0  0  0  0  0  0  0
   10.3600   -3.1340    0.0000 C   0  0  0  0  0  0  0  0  0  0  0  0
   10.3600   -4.8660    0.0000 C   0  0  0  0  0  0  0  0  0  0  0  0
    3.0000    1.0000    0.0000 C   0  0  0  0  0  0  0  0  0  0  0  0
    2.1340    2.5000    0.0000 C   0  0  0  0  0  0  0  0  0  0  0  0
    2.1340    1.5000    0.0000 C   0  0  0  0  0  0  0  0  0  0  0  0
    3.0000    4.0000    0.0000 C   0  0  0  0  0  0  0  0  0  0  0  0
   11.3600   -3.1340    0.0000 C   0  0  0  0  0  0  0  0  0  0  0  0
   11.3600   -4.8660    0.0000 C   0  0  0  0  0  0  0  0  0  0  0  0
    8.4690   -2.6060    0.0000 H   0  0  0  0  0  0  0  0  0  0  0  0
    5.0611   -1.8100    0.0000 H   0  0  0  0  0  0  0  0  0  0  0  0
    7.8671   -1.8100    0.0000 H   0  0  0  0  0  0  0  0  0  0  0  0
    6.4641    0.6200    0.0000 H   0  0  0  0  0  0  0  0  0  0  0  0
    7.8671   -0.1900    0.0000 H   0  0  0  0  0  0  0  0  0  0  0  0
    4.1951   -0.3100    0.0000 H   0  0  0  0  0  0  0  0  0  0  0  0
    5.0611   -4.8100    0.0000 H   0  0  0  0  0  0  0  0  0  0  0  0
    4.4030    2.8100    0.0000 H   0  0  0  0  0  0  0  0  0  0  0  0
   10.0500   -2.5970    0.0000 H   0  0  0  0  0  0  0  0  0  0  0  0
   10.0500   -5.4030    0.0000 H   0  0  0  0  0  0  0  0  0  0  0  0
    3.0000    0.3800    0.0000 H   0  0  0  0  0  0  0  0  0  0  0  0
    1.5970    2.8100    0.0000 H   0  0  0  0  0  0  0  0  0  0  0  0
    1.5970    1.1900    0.0000 H   0  0  0  0  0  0  0  0  0  0  0  0
   11.6700   -2.5970    0.0000 H   0  0  0  0  0  0  0  0  0  0  0  0
   11.6700   -5.4030    0.0000 H   0  0  0  0  0  0  0  0  0  0  0  0
  1 13  1  0  0  0  0
  1 15  1  0  0  0  0
  2 32  1  0  0  0  0
  3 32  1  0  0  0  0
  4 32  1  0  0  0  0
  5 23  2  0  0  0  0
  6 17  1  0  0  0  0
  6 23  1  0  0  0  0
  6 40  1  0  0  0  0
  7 11  1  0  0  0  0
  7 24  2  0  0  0  0
  8 13  2  0  0  0  0
  8 24  1  0  0  0  0
  9 33  2  0  0  0  0
  9 34  1  0  0  0  0
 10 11  2  0  0  0  0
 10 13  1  0  0  0  0
 10 14  1  0  0  0  0
 11 12  1  0  0  0  0
 12 16  2  0  0  0  0
 12 18  1  0  0  0  0
 14 15  2  0  0  0  0
 14 35  1  0  0  0  0
 15 19  1  0  0  0  0
 16 17  1  0  0  0  0
 16 36  1  0  0  0  0
 17 20  2  0  0  0  0
 18 21  2  0  0  0  0
 18 37  1  0  0  0  0
 19 27  2  0  0  0  0
 19 28  1  0  0  0  0
 20 21  1  0  0  0  0
 20 38  1  0  0  0  0
 21 39  1  0  0  0  0
 22 23  1  0  0  0  0
 22 25  2  0  0  0  0
 22 29  1  0  0  0  0
 24 41  1  0  0  0  0
 25 26  1  0  0  0  0
 25 42  1  0  0  0  0
 26 30  2  0  0  0  0
 26 32  1  0  0  0  0
 27 33  1  0  0  0  0
 27 43  1  0  0  0  0
 28 34  2  0  0  0  0
 28 44  1  0  0  0  0
 29 31  2  0  0  0  0
 29 45  1  0  0  0  0
 30 31  1  0  0  0  0
 30 46  1  0  0  0  0
 31 47  1  0  0  0  0
 33 48  1  0  0  0  0
 34 49  1  0  0  0  0
M  END
> <PUBCHEM_COMPOUND_CID>
46865419

> <PUBCHEM_COMPOUND_CANONICALIZED>
1

> <PUBCHEM_CACTVS_COMPLEXITY>
704

> <PUBCHEM_CACTVS_HBOND_ACCEPTOR>
8

> <PUBCHEM_CACTVS_HBOND_DONOR>
1

> <PUBCHEM_CACTVS_ROTATABLE_BOND>
4

> <PUBCHEM_CACTVS_SUBSKEYS>
AAADccB7oYBAAAAAAAAAAAAAAAAAASAAAAA8eIEAAAAAAFgB/gAAHwQQAAAADAjB3hQ90dbIEAisAzV3dACD0Kl1CrhJ2Dk4ZNiIKPLg3dGEJQxolALoyacYiMCOAAACQAAAAAAAAASAAAAAAAAAAAAAAA==

> <PUBCHEM_IUPAC_OPENEYE_NAME>
N-[3-[6-(4-pyridyl)thieno[2,3-d]pyrimidin-4-yl]phenyl]-3-(trifluoromethyl)benzamide

> <PUBCHEM_IUPAC_CAS_NAME>
N-[3-(6-pyridin-4-yl-4-thieno[2,3-d]pyrimidinyl)phenyl]-3-(trifluoromethyl)benzamide

> <PUBCHEM_IUPAC_NAME_MARKUP>
<I>N</I>-[3-(6-pyridin-4-ylthieno[2,3-d]pyrimidin-4-yl)phenyl]-3-(trifluoromethyl)benzamide

> <PUBCHEM_IUPAC_NAME>
N-[3-(6-pyridin-4-ylthieno[2,3-d]pyrimidin-4-yl)phenyl]-3-(trifluoromethyl)benzamide

> <PUBCHEM_IUPAC_SYSTEMATIC_NAME>
N-[3-(6-pyridin-4-ylthieno[2,3-d]pyrimidin-4-yl)phenyl]-3-(trifluoromethyl)benzamide

> <PUBCHEM_IUPAC_TRADITIONAL_NAME>
N-[3-[6-(4-pyridyl)thieno[2,3-d]pyrimidin-4-yl]phenyl]-3-(trifluoromethyl)benzamide

> <PUBCHEM_IUPAC_INCHI>
InChI=1S/C25H15F3N4OS/c26-25(27,28)18-5-1-4-17(11-18)23(33)32-19-6-2-3-16(12-19)22-20-13-21(15-7-9-29-10-8-15)34-24(20)31-14-30-22/h1-14H,(H,32,33)

> <PUBCHEM_IUPAC_INCHIKEY>
CXIYVOOQCNGGIB-UHFFFAOYSA-N

> <PUBCHEM_XLOGP3_AA>
5.5

> <PUBCHEM_EXACT_MASS>
476.09186677

> <PUBCHEM_MOLECULAR_FORMULA>
C25H15F3N4OS

> <PUBCHEM_MOLECULAR_WEIGHT>
476.5

> <PUBCHEM_SMILES>
C1=CC(=CC(=C1)NC(=O)C2=CC(=CC=C2)C(F)(F)F)C3=C4C=C(SC4=NC=N3)C5=CC=NC=C5

> <PUBCHEM_OPENEYE_CAN_SMILES>
C1=CC(=CC(=C1)NC(=O)C2=CC(=CC=C2)C(F)(F)F)C3=C4C=C(SC4=NC=N3)C5=CC=NC=C5

> <PUBCHEM_OPENEYE_ISO_SMILES>
C1=CC(=CC(=C1)NC(=O)C2=CC(=CC=C2)C(F)(F)F)C3=C4C=C(SC4=NC=N3)C5=CC=NC=C5

> <PUBCHEM_CACTVS_TPSA>
96

> <PUBCHEM_MONOISOTOPIC_WEIGHT>
476.09186677

> <PUBCHEM_TOTAL_CHARGE>
0

> <PUBCHEM_HEAVY_ATOM_COUNT>
34

> <PUBCHEM_ATOM_DEF_STEREO_COUNT>
0

> <PUBCHEM_ATOM_UDEF_STEREO_COUNT>
0

> <PUBCHEM_BOND_DEF_STEREO_COUNT>
0

> <PUBCHEM_BOND_UDEF_STEREO_COUNT>
0

> <PUBCHEM_ISOTOPIC_ATOM_COUNT>
0

> <PUBCHEM_COMPONENT_COUNT>
1

> <PUBCHEM_CACTVS_TAUTO_COUNT>
-1

> <PUBCHEM_COORDINATE_TYPE>
1
5
255

> <PUBCHEM_BONDANNOTATIONS>
1  13  8
1  15  8
10  11  8
10  13  8
10  14  8
12  16  8
12  18  8
14  15  8
16  17  8
17  20  8
18  21  8
19  27  8
19  28  8
20  21  8
22  25  8
22  29  8
25  26  8
26  30  8
27  33  8
28  34  8
29  31  8
30  31  8
7  11  8
7  24  8
8  13  8
8  24  8
9  33  8
9  34  8

$$$$
