24894081
  -OEChem-03202502552D

 55 59  0     0  0  0  0  0  0999 V2000
    2.3660   -1.7755    0.0000 F   0  0  0  0  0  0  0  0  0  0  0  0
    2.0000   -3.1415    0.0000 F   0  0  0  0  0  0  0  0  0  0  0  0
    3.3660   -3.5075    0.0000 F   0  0  0  0  0  0  0  0  0  0  0  0
    7.1962   -1.1415    0.0000 O   0  0  0  0  0  0  0  0  0  0  0  0
   13.2583   -0.6415    0.0000 N   0  0  0  0  0  0  0  0  0  0  0  0
   14.2045   -0.9462    0.0000 N   0  0  0  0  0  0  0  0  0  0  0  0
   12.3923    0.8585    0.0000 N   0  0  0  0  0  0  0  0  0  0  0  0
   15.4685    2.9211    0.0000 N   0  0  0  0  0  0  0  0  0  0  0  0
   12.3923   -2.1415    0.0000 N   0  0  0  0  0  0  0  0  0  0  0  0
   14.5180    3.2318    0.0000 N   0  0  0  0  0  0  0  0  0  0  0  0
    8.0622   -2.6415    0.0000 N   0  0  0  0  0  0  0  0  0  0  0  0
    6.3301   -2.6415    0.0000 N   0  0  0  0  0  0  0  0  0  0  0  0
   13.2583    0.3585    0.0000 C   0  0  0  0  0  0  0  0  0  0  0  0
   14.2045    0.6632    0.0000 C   0  0  0  0  0  0  0  0  0  0  0  0
   11.5263   -0.6415    0.0000 C   0  0  0  0  0  0  0  0  0  0  0  0
   12.3923   -1.1415    0.0000 C   0  0  0  0  0  0  0  0  0  0  0  0
   10.6603   -1.1415    0.0000 C   0  0  0  0  0  0  0  0  0  0  0  0
   14.5152    1.6138    0.0000 C   0  0  0  0  0  0  0  0  0  0  0  0
   14.7882   -0.1415    0.0000 C   0  0  0  0  0  0  0  0  0  0  0  0
   11.5263    0.3585    0.0000 C   0  0  0  0  0  0  0  0  0  0  0  0
   15.4668    1.9211    0.0000 C   0  0  0  0  0  0  0  0  0  0  0  0
   10.6603   -2.1415    0.0000 C   0  0  0  0  0  0  0  0  0  0  0  0
    9.7942   -0.6415    0.0000 C   0  0  0  0  0  0  0  0  0  0  0  0
   13.9288    2.4238    0.0000 C   0  0  0  0  0  0  0  0  0  0  0  0
    8.9282   -2.1415    0.0000 C   0  0  0  0  0  0  0  0  0  0  0  0
    9.7942   -2.6415    0.0000 C   0  0  0  0  0  0  0  0  0  0  0  0
    8.9282   -1.1415    0.0000 C   0  0  0  0  0  0  0  0  0  0  0  0
   16.2786    3.5075    0.0000 C   0  0  0  0  0  0  0  0  0  0  0  0
    5.4641   -2.1415    0.0000 C   0  0  0  0  0  0  0  0  0  0  0  0
    7.1962   -2.1415    0.0000 C   0  0  0  0  0  0  0  0  0  0  0  0
    3.7320   -2.1415    0.0000 C   0  0  0  0  0  0  0  0  0  0  0  0
    4.5981   -2.6415    0.0000 C   0  0  0  0  0  0  0  0  0  0  0  0
    5.4641   -1.1415    0.0000 C   0  0  0  0  0  0  0  0  0  0  0  0
    3.7320   -1.1415    0.0000 C   0  0  0  0  0  0  0  0  0  0  0  0
    4.5981   -0.6415    0.0000 C   0  0  0  0  0  0  0  0  0  0  0  0
    2.8660   -2.6415    0.0000 C   0  0  0  0  0  0  0  0  0  0  0  0
   15.4082   -0.1415    0.0000 H   0  0  0  0  0  0  0  0  0  0  0  0
   10.9893    0.6685    0.0000 H   0  0  0  0  0  0  0  0  0  0  0  0
   15.9678    1.5558    0.0000 H   0  0  0  0  0  0  0  0  0  0  0  0
   11.1972   -2.4515    0.0000 H   0  0  0  0  0  0  0  0  0  0  0  0
    9.7942   -0.0215    0.0000 H   0  0  0  0  0  0  0  0  0  0  0  0
   13.3088    2.4249    0.0000 H   0  0  0  0  0  0  0  0  0  0  0  0
    9.7942   -3.2615    0.0000 H   0  0  0  0  0  0  0  0  0  0  0  0
    8.3913   -0.8315    0.0000 H   0  0  0  0  0  0  0  0  0  0  0  0
   12.9292   -2.4515    0.0000 H   0  0  0  0  0  0  0  0  0  0  0  0
   11.8554   -2.4515    0.0000 H   0  0  0  0  0  0  0  0  0  0  0  0
    8.0622   -3.2615    0.0000 H   0  0  0  0  0  0  0  0  0  0  0  0
   16.6421    3.0053    0.0000 H   0  0  0  0  0  0  0  0  0  0  0  0
   16.7808    3.8711    0.0000 H   0  0  0  0  0  0  0  0  0  0  0  0
   15.9150    4.0097    0.0000 H   0  0  0  0  0  0  0  0  0  0  0  0
    6.3301   -3.2615    0.0000 H   0  0  0  0  0  0  0  0  0  0  0  0
    4.5981   -3.2615    0.0000 H   0  0  0  0  0  0  0  0  0  0  0  0
    6.0010   -0.8315    0.0000 H   0  0  0  0  0  0  0  0  0  0  0  0
    3.1951   -0.8315    0.0000 H   0  0  0  0  0  0  0  0  0  0  0  0
    4.5981   -0.0215    0.0000 H   0  0  0  0  0  0  0  0  0  0  0  0
  1 36  1  0  0  0  0
  2 36  1  0  0  0  0
  3 36  1  0  0  0  0
  4 30  2  0  0  0  0
  5  6  1  0  0  0  0
  5 13  1  0  0  0  0
  5 16  1  0  0  0  0
  6 19  2  0  0  0  0
  7 13  1  0  0  0  0
  7 20  2  0  0  0  0
  8 10  1  0  0  0  0
  8 21  1  0  0  0  0
  8 28  1  0  0  0  0
  9 16  1  0  0  0  0
  9 45  1  0  0  0  0
  9 46  1  0  0  0  0
 10 24  2  0  0  0  0
 11 25  1  0  0  0  0
 11 30  1  0  0  0  0
 11 47  1  0  0  0  0
 12 29  1  0  0  0  0
 12 30  1  0  0  0  0
 12 51  1  0  0  0  0
 13 14  2  0  0  0  0
 14 18  1  0  0  0  0
 14 19  1  0  0  0  0
 15 16  2  0  0  0  0
 15 17  1  0  0  0  0
 15 20  1  0  0  0  0
 17 22  2  0  0  0  0
 17 23  1  0  0  0  0
 18 21  2  0  0  0  0
 18 24  1  0  0  0  0
 19 37  1  0  0  0  0
 20 38  1  0  0  0  0
 21 39  1  0  0  0  0
 22 26  1  0  0  0  0
 22 40  1  0  0  0  0
 23 27  2  0  0  0  0
 23 41  1  0  0  0  0
 24 42  1  0  0  0  0
 25 26  2  0  0  0  0
 25 27  1  0  0  0  0
 26 43  1  0  0  0  0
 27 44  1  0  0  0  0
 28 48  1  0  0  0  0
 28 49  1  0  0  0  0
 28 50  1  0  0  0  0
 29 32  1  0  0  0  0
 29 33  2  0  0  0  0
 31 32  2  0  0  0  0
 31 34  1  0  0  0  0
 31 36  1  0  0  0  0
 32 52  1  0  0  0  0
 33 35  1  0  0  0  0
 33 53  1  0  0  0  0
 34 35  2  0  0  0  0
 34 54  1  0  0  0  0
 35 55  1  0  0  0  0
M  END
> <PUBCHEM_COMPOUND_CID>
24894081

> <PUBCHEM_COMPOUND_CANONICALIZED>
1

> <PUBCHEM_CACTVS_COMPLEXITY>
764

> <PUBCHEM_CACTVS_HBOND_ACCEPTOR>
8

> <PUBCHEM_CACTVS_HBOND_DONOR>
3

> <PUBCHEM_CACTVS_ROTATABLE_BOND>
4

> <PUBCHEM_CACTVS_SUBSKEYS>
AAADceB74YAAAAAAAAAAAAAAAAAAAWLAAAA8YIAAAAAAAFgB/AAAHwAYAAAADAjBGxQ/8J7IEACqAjZndACShCsxgqAd2CAoZJiIKOLA2dGEpAh4nALIyCcQgMAOiAAAQAAAAAAQAACAAAAAAAAAAAAAAA==

> <PUBCHEM_IUPAC_OPENEYE_NAME>
1-[4-[7-amino-3-(1-methylpyrazol-4-yl)pyrazolo[1,5-a]pyrimidin-6-yl]phenyl]-3-[3-(trifluoromethyl)phenyl]urea

> <PUBCHEM_IUPAC_CAS_NAME>
1-[4-[7-amino-3-(1-methyl-4-pyrazolyl)-6-pyrazolo[1,5-a]pyrimidinyl]phenyl]-3-[3-(trifluoromethyl)phenyl]urea

> <PUBCHEM_IUPAC_NAME_MARKUP>
1-[4-[7-amino-3-(1-methylpyrazol-4-yl)pyrazolo[1,5-a]pyrimidin-6-yl]phenyl]-3-[3-(trifluoromethyl)phenyl]urea

> <PUBCHEM_IUPAC_NAME>
1-[4-[7-amino-3-(1-methylpyrazol-4-yl)pyrazolo[1,5-a]pyrimidin-6-yl]phenyl]-3-[3-(trifluoromethyl)phenyl]urea

> <PUBCHEM_IUPAC_SYSTEMATIC_NAME>
1-[4-[7-azanyl-3-(1-methylpyrazol-4-yl)pyrazolo[1,5-a]pyrimidin-6-yl]phenyl]-3-[3-(trifluoromethyl)phenyl]urea

> <PUBCHEM_IUPAC_TRADITIONAL_NAME>
1-[4-[7-amino-3-(1-methylpyrazol-4-yl)pyrazolo[1,5-a]pyrimidin-6-yl]phenyl]-3-[3-(trifluoromethyl)phenyl]urea

> <PUBCHEM_IUPAC_INCHI>
InChI=1S/C24H19F3N8O/c1-34-13-15(10-30-34)20-12-31-35-21(28)19(11-29-22(20)35)14-5-7-17(8-6-14)32-23(36)33-18-4-2-3-16(9-18)24(25,26)27/h2-13H,28H2,1H3,(H2,32,33,36)

> <PUBCHEM_IUPAC_INCHIKEY>
UOOZSMNSBYVUGZ-UHFFFAOYSA-N

> <PUBCHEM_XLOGP3_AA>
3

> <PUBCHEM_EXACT_MASS>
492.16339175

> <PUBCHEM_MOLECULAR_FORMULA>
C24H19F3N8O

> <PUBCHEM_MOLECULAR_WEIGHT>
492.5

> <PUBCHEM_SMILES>
CN1C=C(C=N1)C2=C3N=CC(=C(N3N=C2)N)C4=CC=C(C=C4)NC(=O)NC5=CC=CC(=C5)C(F)(F)F

> <PUBCHEM_OPENEYE_CAN_SMILES>
CN1C=C(C=N1)C2=C3N=CC(=C(N3N=C2)N)C4=CC=C(C=C4)NC(=O)NC5=CC=CC(=C5)C(F)(F)F

> <PUBCHEM_OPENEYE_ISO_SMILES>
CN1C=C(C=N1)C2=C3N=CC(=C(N3N=C2)N)C4=CC=C(C=C4)NC(=O)NC5=CC=CC(=C5)C(F)(F)F

> <PUBCHEM_CACTVS_TPSA>
115

> <PUBCHEM_MONOISOTOPIC_WEIGHT>
492.16339175

> <PUBCHEM_TOTAL_CHARGE>
0

> <PUBCHEM_HEAVY_ATOM_COUNT>
36

> <PUBCHEM_ATOM_DEF_STEREO_COUNT>
0

> <PUBCHEM_ATOM_UDEF_STEREO_COUNT>
0

> <PUBCHEM_BOND_DEF_STEREO_COUNT>
0

> <PUBCHEM_BOND_UDEF_STEREO_COUNT>
0

> <PUBCHEM_ISOTOPIC_ATOM_COUNT>
0

> <PUBCHEM_COMPONENT_COUNT>
1

> <PUBCHEM_CACTVS_TAUTO_COUNT>
-1

> <PUBCHEM_COORDINATE_TYPE>
1
5
255

> <PUBCHEM_BONDANNOTATIONS>
10  24  8
13  14  8
14  19  8
15  16  8
15  20  8
17  22  8
17  23  8
18  21  8
18  24  8
22  26  8
23  27  8
25  26  8
25  27  8
29  32  8
29  33  8
31  32  8
31  34  8
33  35  8
34  35  8
5  13  8
5  16  8
5  6  8
6  19  8
7  13  8
7  20  8
8  10  8
8  21  8

$$$$
