70683609
  -OEChem-03202504322D

 93100  0     1  0  0  0  0  0999 V2000
    7.7331   -1.2736    0.0000 O   0  0  0  0  0  0  0  0  0  0  0  0
    6.8671   -3.7736    0.0000 O   0  0  0  0  0  0  0  0  0  0  0  0
    5.1350   -0.7736    0.0000 O   0  0  0  0  0  0  0  0  0  0  0  0
    5.1350   -2.7736    0.0000 O   0  0  0  0  0  0  0  0  0  0  0  0
    5.1350   -3.7736    0.0000 O   0  0  0  0  0  0  0  0  0  0  0  0
    6.8671   -5.7736    0.0000 O   0  0  0  0  0  0  0  0  0  0  0  0
    8.5991   -3.7736    0.0000 O   0  0  0  0  0  0  0  0  0  0  0  0
    5.1350   -6.7736    0.0000 O   0  0  0  0  0  0  0  0  0  0  0  0
    3.4030   -5.7736    0.0000 O   0  0  0  0  0  0  0  0  0  0  0  0
    7.0599    3.9935    0.0000 O   0  0  0  0  0  0  0  0  0  0  0  0
   10.4949    3.2696    0.0000 O   0  0  0  0  0  0  0  0  0  0  0  0
    2.5369   -4.2736    0.0000 O   0  0  0  0  0  0  0  0  0  0  0  0
    3.3760    1.1246    0.0000 O   0  0  0  0  0  0  0  0  0  0  0  0
   12.7077   -0.8421    0.0000 O   0  0  0  0  0  0  0  0  0  0  0  0
   11.1472    6.4770    0.0000 O   0  0  0  0  0  0  0  0  0  0  0  0
   11.6853    4.8306    0.0000 O   0  0  0  0  0  0  0  0  0  0  0  0
    6.8671    0.2264    0.0000 N   0  0  0  0  0  0  0  0  0  0  0  0
    9.1511   -0.2550    0.0000 N   0  0  0  0  0  0  0  0  0  0  0  0
    8.8337    3.8986    0.0000 N   0  0  0  0  0  0  0  0  0  0  0  0
    9.0399    4.8771    0.0000 N   0  0  0  0  0  0  0  0  0  0  0  0
    6.8671   -0.7736    0.0000 C   0  0  1  0  0  0  0  0  0  0  0  0
    6.8671   -2.7736    0.0000 C   0  0  1  0  0  0  0  0  0  0  0  0
    6.0010   -1.2736    0.0000 C   0  0  1  0  0  0  0  0  0  0  0  0
    6.0010   -2.2736    0.0000 C   0  0  1  0  0  0  0  0  0  0  0  0
    7.7331   -2.2736    0.0000 C   0  0  1  0  0  0  0  0  0  0  0  0
    7.6718    0.8100    0.0000 C   0  0  0  0  0  0  0  0  0  0  0  0
    7.3611    1.7605    0.0000 C   0  0  0  0  0  0  0  0  0  0  0  0
    6.0623    0.8100    0.0000 C   0  0  0  0  0  0  0  0  0  0  0  0
    6.0010   -4.2736    0.0000 C   0  0  1  0  0  0  0  0  0  0  0  0
    8.6503    0.6038    0.0000 C   0  0  0  0  0  0  0  0  0  0  0  0
    6.3671    1.7562    0.0000 C   0  0  0  0  0  0  0  0  0  0  0  0
    6.0010   -5.2736    0.0000 C   0  0  1  0  0  0  0  0  0  0  0  0
    8.0290    2.5048    0.0000 C   0  0  0  0  0  0  0  0  0  0  0  0
    8.5991   -2.7736    0.0000 C   0  0  0  0  0  0  0  0  0  0  0  0
    9.3181    1.3480    0.0000 C   0  0  0  0  0  0  0  0  0  0  0  0
    5.1350   -5.7736    0.0000 C   0  0  2  0  0  0  0  0  0  0  0  0
    9.0075    2.2986    0.0000 C   0  0  0  0  0  0  0  0  0  0  0  0
    4.2690   -5.2736    0.0000 C   0  0  1  0  0  0  0  0  0  0  0  0
    4.2690   -4.2736    0.0000 C   0  0  1  0  0  0  0  0  0  0  0  0
   10.2259    0.9429    0.0000 C   0  0  0  0  0  0  0  0  0  0  0  0
    5.0535    0.5765    0.0000 C   0  0  0  0  0  0  0  0  0  0  0  0
   10.1229   -0.0458    0.0000 C   0  0  0  0  0  0  0  0  0  0  0  0
    7.9259    3.4935    0.0000 C   0  0  0  0  0  0  0  0  0  0  0  0
    5.6841    2.5345    0.0000 C   0  0  0  0  0  0  0  0  0  0  0  0
    9.5008    3.1616    0.0000 C   0  0  0  0  0  0  0  0  0  0  0  0
    3.4030   -3.7736    0.0000 C   0  0  0  0  0  0  0  0  0  0  0  0
    4.3528    1.3388    0.0000 C   0  0  0  0  0  0  0  0  0  0  0  0
    4.6702    2.3244    0.0000 C   0  0  0  0  0  0  0  0  0  0  0  0
   11.1649    1.3794    0.0000 C   0  0  0  0  0  0  0  0  0  0  0  0
   10.9516   -0.6665    0.0000 C   0  0  0  0  0  0  0  0  0  0  0  0
   12.0078    0.7780    0.0000 C   0  0  0  0  0  0  0  0  0  0  0  0
   11.9004   -0.2519    0.0000 C   0  0  0  0  0  0  0  0  0  0  0  0
    9.9904    5.1878    0.0000 C   0  0  0  0  0  0  0  0  0  0  0  0
   10.1967    6.1663    0.0000 C   0  0  0  0  0  0  0  0  0  0  0  0
   10.7347    4.5200    0.0000 C   0  0  0  0  0  0  0  0  0  0  0  0
    7.4040   -0.4636    0.0000 H   0  0  0  0  0  0  0  0  0  0  0  0
    7.4040   -3.0836    0.0000 H   0  0  0  0  0  0  0  0  0  0  0  0
    6.0010   -0.6536    0.0000 H   0  0  0  0  0  0  0  0  0  0  0  0
    6.0010   -2.8936    0.0000 H   0  0  0  0  0  0  0  0  0  0  0  0
    8.2700   -1.9636    0.0000 H   0  0  0  0  0  0  0  0  0  0  0  0
    6.0010   -3.6536    0.0000 H   0  0  0  0  0  0  0  0  0  0  0  0
    6.0010   -5.8936    0.0000 H   0  0  0  0  0  0  0  0  0  0  0  0
    9.2097   -2.8813    0.0000 H   0  0  0  0  0  0  0  0  0  0  0  0
    8.8112   -2.1910    0.0000 H   0  0  0  0  0  0  0  0  0  0  0  0
    4.5981   -6.0836    0.0000 H   0  0  0  0  0  0  0  0  0  0  0  0
    4.2690   -5.8936    0.0000 H   0  0  0  0  0  0  0  0  0  0  0  0
    4.2690   -3.6536    0.0000 H   0  0  0  0  0  0  0  0  0  0  0  0
    4.5981   -1.0836    0.0000 H   0  0  0  0  0  0  0  0  0  0  0  0
    4.5981   -2.4636    0.0000 H   0  0  0  0  0  0  0  0  0  0  0  0
    8.9008   -0.8223    0.0000 H   0  0  0  0  0  0  0  0  0  0  0  0
    4.8703   -0.0158    0.0000 H   0  0  0  0  0  0  0  0  0  0  0  0
    5.8810    3.1224    0.0000 H   0  0  0  0  0  0  0  0  0  0  0  0
    3.8015   -3.2987    0.0000 H   0  0  0  0  0  0  0  0  0  0  0  0
    3.0044   -3.2987    0.0000 H   0  0  0  0  0  0  0  0  0  0  0  0
    4.2559    2.7857    0.0000 H   0  0  0  0  0  0  0  0  0  0  0  0
    7.4040   -5.4636    0.0000 H   0  0  0  0  0  0  0  0  0  0  0  0
   11.2220    1.9968    0.0000 H   0  0  0  0  0  0  0  0  0  0  0  0
    9.1360   -4.0836    0.0000 H   0  0  0  0  0  0  0  0  0  0  0  0
    5.6720   -7.0836    0.0000 H   0  0  0  0  0  0  0  0  0  0  0  0
   10.8802   -1.2824    0.0000 H   0  0  0  0  0  0  0  0  0  0  0  0
    3.4030   -6.3936    0.0000 H   0  0  0  0  0  0  0  0  0  0  0  0
    8.5785    5.2912    0.0000 H   0  0  0  0  0  0  0  0  0  0  0  0
   12.5730    1.0329    0.0000 H   0  0  0  0  0  0  0  0  0  0  0  0
    9.5290    5.6019    0.0000 H   0  0  0  0  0  0  0  0  0  0  0  0
    2.0000   -3.9636    0.0000 H   0  0  0  0  0  0  0  0  0  0  0  0
    2.9582    1.5826    0.0000 H   0  0  0  0  0  0  0  0  0  0  0  0
   10.1093    6.7801    0.0000 H   0  0  0  0  0  0  0  0  0  0  0  0
    9.5770    6.1869    0.0000 H   0  0  0  0  0  0  0  0  0  0  0  0
   10.2468    4.1374    0.0000 H   0  0  0  0  0  0  0  0  0  0  0  0
   11.0268    3.9730    0.0000 H   0  0  0  0  0  0  0  0  0  0  0  0
   13.2748   -0.5916    0.0000 H   0  0  0  0  0  0  0  0  0  0  0  0
   11.2750    7.0836    0.0000 H   0  0  0  0  0  0  0  0  0  0  0  0
   12.1467    4.4166    0.0000 H   0  0  0  0  0  0  0  0  0  0  0  0
  1 21  1  0  0  0  0
  1 25  1  0  0  0  0
 22  2  1  1  0  0  0
 29  2  1  6  0  0  0
 23  3  1  1  0  0  0
  3 68  1  0  0  0  0
 24  4  1  6  0  0  0
  4 69  1  0  0  0  0
  5 29  1  0  0  0  0
  5 39  1  0  0  0  0
 32  6  1  6  0  0  0
  6 76  1  0  0  0  0
  7 34  1  0  0  0  0
  7 78  1  0  0  0  0
 36  8  1  1  0  0  0
  8 79  1  0  0  0  0
 38  9  1  6  0  0  0
  9 81  1  0  0  0  0
 10 43  2  0  0  0  0
 11 45  2  0  0  0  0
 12 46  1  0  0  0  0
 12 85  1  0  0  0  0
 13 47  1  0  0  0  0
 13 86  1  0  0  0  0
 14 52  1  0  0  0  0
 14 91  1  0  0  0  0
 15 54  1  0  0  0  0
 15 92  1  0  0  0  0
 16 55  1  0  0  0  0
 16 93  1  0  0  0  0
 21 17  1  6  0  0  0
 17 26  1  0  0  0  0
 17 28  1  0  0  0  0
 18 30  1  0  0  0  0
 18 42  1  0  0  0  0
 18 70  1  0  0  0  0
 19 20  1  0  0  0  0
 19 43  1  0  0  0  0
 19 45  1  0  0  0  0
 20 53  1  0  0  0  0
 20 82  1  0  0  0  0
 21 23  1  0  0  0  0
 21 56  1  0  0  0  0
 22 24  1  0  0  0  0
 22 25  1  0  0  0  0
 22 57  1  0  0  0  0
 23 24  1  0  0  0  0
 23 58  1  0  0  0  0
 24 59  1  0  0  0  0
 25 34  1  6  0  0  0
 25 60  1  0  0  0  0
 26 27  1  0  0  0  0
 26 30  2  0  0  0  0
 27 31  1  0  0  0  0
 27 33  2  0  0  0  0
 28 31  2  0  0  0  0
 28 41  1  0  0  0  0
 29 32  1  0  0  0  0
 29 61  1  0  0  0  0
 30 35  1  0  0  0  0
 31 44  1  0  0  0  0
 32 36  1  0  0  0  0
 32 62  1  0  0  0  0
 33 37  1  0  0  0  0
 33 43  1  0  0  0  0
 34 63  1  0  0  0  0
 34 64  1  0  0  0  0
 35 37  2  0  0  0  0
 35 40  1  0  0  0  0
 36 38  1  0  0  0  0
 36 65  1  0  0  0  0
 37 45  1  0  0  0  0
 38 39  1  0  0  0  0
 38 66  1  0  0  0  0
 39 46  1  1  0  0  0
 39 67  1  0  0  0  0
 40 42  2  0  0  0  0
 40 49  1  0  0  0  0
 41 47  2  0  0  0  0
 41 71  1  0  0  0  0
 42 50  1  0  0  0  0
 44 48  2  0  0  0  0
 44 72  1  0  0  0  0
 46 73  1  0  0  0  0
 46 74  1  0  0  0  0
 47 48  1  0  0  0  0
 48 75  1  0  0  0  0
 49 51  2  0  0  0  0
 49 77  1  0  0  0  0
 50 52  2  0  0  0  0
 50 80  1  0  0  0  0
 51 52  1  0  0  0  0
 51 83  1  0  0  0  0
 53 54  1  0  0  0  0
 53 55  1  0  0  0  0
 53 84  1  0  0  0  0
 54 87  1  0  0  0  0
 54 88  1  0  0  0  0
 55 89  1  0  0  0  0
 55 90  1  0  0  0  0
M  END
> <PUBCHEM_COMPOUND_CID>
70683609

> <PUBCHEM_COMPOUND_CANONICALIZED>
1

> <PUBCHEM_CACTVS_COMPLEXITY>
1420

> <PUBCHEM_CACTVS_HBOND_ACCEPTOR>
17

> <PUBCHEM_CACTVS_HBOND_DONOR>
13

> <PUBCHEM_CACTVS_ROTATABLE_BOND>
9

> <PUBCHEM_CACTVS_SUBSKEYS>
AAADcfB/vgAAAAAAAAAAAAAAAAAAAWLFgAA0aMECAAAAAFgB/gAAHgAYCAAADDzxngcwzvPvlgCoAyVyVACCgCQlMiAa+aE+fNgbdvLClZO+cQhn1Dnf2Qf9+f+e6AACQgASACDQAASEACQAQAAAAAAAAA==

> <PUBCHEM_IUPAC_OPENEYE_NAME>
3-[(2R,3R,4R,5S,6R)-3,4-dihydroxy-6-(hydroxymethyl)-5-[(2R,3R,4S,5S,6R)-3,4,5-trihydroxy-6-(hydroxymethyl)tetrahydropyran-2-yl]oxy-tetrahydropyran-2-yl]-6,20-dihydroxy-13-[[2-hydroxy-1-(hydroxymethyl)ethyl]amino]-3,13,23-triazahexacyclo[14.7.0.02,10.04,9.011,15.017,22]tricosa-1,4(9),5,7,10,15,17(22),18,20-nonaene-12,14-dione

> <PUBCHEM_IUPAC_CAS_NAME>
3-[(2R,3R,4R,5S,6R)-3,4-dihydroxy-6-(hydroxymethyl)-5-[[(2R,3R,4S,5S,6R)-3,4,5-trihydroxy-6-(hydroxymethyl)-2-oxanyl]oxy]-2-oxanyl]-13-(1,3-dihydroxypropan-2-ylamino)-6,20-dihydroxy-3,13,23-triazahexacyclo[14.7.0.02,10.04,9.011,15.017,22]tricosa-1,4(9),5,7,10,15,17(22),18,20-nonaene-12,14-dione

> <PUBCHEM_IUPAC_NAME_MARKUP>
3-[(2<I>R</I>,3<I>R</I>,4<I>R</I>,5<I>S</I>,6<I>R</I>)-3,4-dihydroxy-6-(hydroxymethyl)-5-[(2<I>R</I>,3<I>R</I>,4<I>S</I>,5<I>S</I>,6<I>R</I>)-3,4,5-trihydroxy-6-(hydroxymethyl)oxan-2-yl]oxyoxan-2-yl]-13-(1,3-dihydroxypropan-2-ylamino)-6,20-dihydroxy-3,13,23-triazahexacyclo[14.7.0.0<SUP>2,10</SUP>.0<SUP>4,9</SUP>.0<SUP>11,15</SUP>.0<SUP>17,22</SUP>]tricosa-1,4(9),5,7,10,15,17(22),18,20-nonaene-12,14-dione

> <PUBCHEM_IUPAC_NAME>
3-[(2R,3R,4R,5S,6R)-3,4-dihydroxy-6-(hydroxymethyl)-5-[(2R,3R,4S,5S,6R)-3,4,5-trihydroxy-6-(hydroxymethyl)oxan-2-yl]oxyoxan-2-yl]-13-(1,3-dihydroxypropan-2-ylamino)-6,20-dihydroxy-3,13,23-triazahexacyclo[14.7.0.02,10.04,9.011,15.017,22]tricosa-1,4(9),5,7,10,15,17(22),18,20-nonaene-12,14-dione

> <PUBCHEM_IUPAC_SYSTEMATIC_NAME>
13-[1,3-bis(oxidanyl)propan-2-ylamino]-3-[(2R,3R,4R,5S,6R)-6-(hydroxymethyl)-5-[(2R,3R,4S,5S,6R)-6-(hydroxymethyl)-3,4,5-tris(oxidanyl)oxan-2-yl]oxy-3,4-bis(oxidanyl)oxan-2-yl]-6,20-bis(oxidanyl)-3,13,23-triazahexacyclo[14.7.0.02,10.04,9.011,15.017,22]tricosa-1,4(9),5,7,10,15,17(22),18,20-nonaene-12,14-dione

> <PUBCHEM_IUPAC_TRADITIONAL_NAME>
3-[(2R,3R,4R,5S,6R)-3,4-dihydroxy-6-methylol-5-[(2R,3R,4S,5S,6R)-3,4,5-trihydroxy-6-methylol-tetrahydropyran-2-yl]oxy-tetrahydropyran-2-yl]-6,20-dihydroxy-13-[(2-hydroxy-1-methylol-ethyl)amino]-3,13,23-triazahexacyclo[14.7.0.02,10.04,9.011,15.017,22]tricosa-1,4(9),5,7,10,15,17(22),18,20-nonaene-12,14-quinone

> <PUBCHEM_IUPAC_INCHI>
InChI=1S/C35H38N4O16/c40-7-11(8-41)37-39-32(51)22-20-14-3-1-12(44)5-16(14)36-24(20)25-21(23(22)33(39)52)15-4-2-13(45)6-17(15)38(25)34-29(49)28(48)31(19(10-43)53-34)55-35-30(50)27(47)26(46)18(9-42)54-35/h1-6,11,18-19,26-31,34-37,40-50H,7-10H2/t18-,19-,26-,27+,28-,29-,30-,31-,34-,35-/m1/s1

> <PUBCHEM_IUPAC_INCHIKEY>
GVLIJMZXIKBPFL-OSUKIGJTSA-N

> <PUBCHEM_XLOGP3_AA>
-2.8

> <PUBCHEM_EXACT_MASS>
770.22828114

> <PUBCHEM_MOLECULAR_FORMULA>
C35H38N4O16

> <PUBCHEM_MOLECULAR_WEIGHT>
770.7

> <PUBCHEM_SMILES>
C1=CC2=C(C=C1O)NC3=C4C(=C5C(=C23)C(=O)N(C5=O)NC(CO)CO)C6=C(N4[C@H]7[C@@H]([C@H]([C@@H]([C@H](O7)CO)O[C@@H]8[C@@H]([C@H]([C@@H]([C@H](O8)CO)O)O)O)O)O)C=C(C=C6)O

> <PUBCHEM_OPENEYE_CAN_SMILES>
C1=CC2=C(C=C1O)NC3=C4C(=C5C(=C23)C(=O)N(C5=O)NC(CO)CO)C6=C(N4C7C(C(C(C(O7)CO)OC8C(C(C(C(O8)CO)O)O)O)O)O)C=C(C=C6)O

> <PUBCHEM_OPENEYE_ISO_SMILES>
C1=CC2=C(C=C1O)NC3=C4C(=C5C(=C23)C(=O)N(C5=O)NC(CO)CO)C6=C(N4[C@H]7[C@@H]([C@H]([C@@H]([C@H](O7)CO)O[C@@H]8[C@@H]([C@H]([C@@H]([C@H](O8)CO)O)O)O)O)O)C=C(C=C6)O

> <PUBCHEM_CACTVS_TPSA>
320

> <PUBCHEM_MONOISOTOPIC_WEIGHT>
770.22828114

> <PUBCHEM_TOTAL_CHARGE>
0

> <PUBCHEM_HEAVY_ATOM_COUNT>
55

> <PUBCHEM_ATOM_DEF_STEREO_COUNT>
10

> <PUBCHEM_ATOM_UDEF_STEREO_COUNT>
0

> <PUBCHEM_BOND_DEF_STEREO_COUNT>
0

> <PUBCHEM_BOND_UDEF_STEREO_COUNT>
0

> <PUBCHEM_ISOTOPIC_ATOM_COUNT>
0

> <PUBCHEM_COMPONENT_COUNT>
1

> <PUBCHEM_CACTVS_TAUTO_COUNT>
-1

> <PUBCHEM_COORDINATE_TYPE>
1
5
255

> <PUBCHEM_BONDANNOTATIONS>
21  17  6
17  26  8
17  28  8
18  30  8
18  42  8
22  2  5
29  2  6
25  34  6
26  27  8
26  30  8
27  31  8
27  33  8
28  31  8
28  41  8
23  3  5
30  35  8
31  44  8
33  37  8
35  37  8
35  40  8
39  46  5
24  4  6
40  42  8
40  49  8
41  47  8
42  50  8
44  48  8
47  48  8
49  51  8
50  52  8
51  52  8
32  6  6
36  8  5
38  9  6

$$$$
