11620908
  -OEChem-03202500222D

 63 66  0     0  0  0  0  0  0999 V2000
    2.8660    1.4330    0.0000 Cl  0  0  0  0  0  0  0  0  0  0  0  0
    5.4641   -4.0670    0.0000 F   0  0  0  0  0  0  0  0  0  0  0  0
    4.0981   -4.4330    0.0000 F   0  0  0  0  0  0  0  0  0  0  0  0
    5.0981   -2.7010    0.0000 F   0  0  0  0  0  0  0  0  0  0  0  0
   12.9884   -1.0482    0.0000 O   0  0  0  0  0  0  0  0  0  0  0  0
   11.3886    1.0591    0.0000 O   0  0  0  0  0  0  0  0  0  0  0  0
    2.8660   -0.5670    0.0000 O   0  0  0  0  0  0  0  0  0  0  0  0
    8.1424    2.6283    0.0000 N   0  0  0  0  0  0  0  0  0  0  0  0
    9.7422    0.5210    0.0000 N   0  0  0  0  0  0  0  0  0  0  0  0
    6.3301    1.4330    0.0000 N   0  0  0  0  0  0  0  0  0  0  0  0
    6.3301    4.4330    0.0000 N   0  0  0  0  0  0  0  0  0  0  0  0
    5.4641    2.9330    0.0000 N   0  0  0  0  0  0  0  0  0  0  0  0
   12.0099   -0.8419    0.0000 C   0  0  0  0  0  0  0  0  0  0  0  0
    8.4530    1.6778    0.0000 C   0  0  0  0  0  0  0  0  0  0  0  0
   11.0314   -0.6357    0.0000 C   0  0  0  0  0  0  0  0  0  0  0  0
    9.4315    1.4715    0.0000 C   0  0  0  0  0  0  0  0  0  0  0  0
    7.1962    2.9330    0.0000 C   0  0  0  0  0  0  0  0  0  0  0  0
   10.7207    0.3148    0.0000 C   0  0  0  0  0  0  0  0  0  0  0  0
    7.1962    3.9330    0.0000 C   0  0  0  0  0  0  0  0  0  0  0  0
    8.7260    3.4330    0.0000 C   0  0  0  0  0  0  0  0  0  0  0  0
   11.8037   -1.8204    0.0000 C   0  0  0  0  0  0  0  0  0  0  0  0
   12.2161    0.1366    0.0000 C   0  0  0  0  0  0  0  0  0  0  0  0
    6.3301    2.4330    0.0000 C   0  0  0  0  0  0  0  0  0  0  0  0
    8.1424    4.2377    0.0000 C   0  0  0  0  0  0  0  0  0  0  0  0
    5.4641    0.9330    0.0000 C   0  0  0  0  0  0  0  0  0  0  0  0
    5.4641    3.9330    0.0000 C   0  0  0  0  0  0  0  0  0  0  0  0
    4.5981    1.4330    0.0000 C   0  0  0  0  0  0  0  0  0  0  0  0
    5.4641   -0.0670    0.0000 C   0  0  0  0  0  0  0  0  0  0  0  0
    3.7320   -0.0670    0.0000 C   0  0  0  0  0  0  0  0  0  0  0  0
    3.7320    0.9330    0.0000 C   0  0  0  0  0  0  0  0  0  0  0  0
    4.5981   -0.5670    0.0000 C   0  0  0  0  0  0  0  0  0  0  0  0
    2.8660   -1.5670    0.0000 C   0  0  0  0  0  0  0  0  0  0  0  0
    3.7320   -2.0670    0.0000 C   0  0  0  0  0  0  0  0  0  0  0  0
    3.7320   -3.0670    0.0000 C   0  0  0  0  0  0  0  0  0  0  0  0
    2.0000   -2.0670    0.0000 C   0  0  0  0  0  0  0  0  0  0  0  0
    2.8660   -3.5670    0.0000 C   0  0  0  0  0  0  0  0  0  0  0  0
    2.0000   -3.0670    0.0000 C   0  0  0  0  0  0  0  0  0  0  0  0
    4.5981   -3.5670    0.0000 C   0  0  0  0  0  0  0  0  0  0  0  0
    7.8392    1.5904    0.0000 H   0  0  0  0  0  0  0  0  0  0  0  0
    8.4325    1.0581    0.0000 H   0  0  0  0  0  0  0  0  0  0  0  0
   10.4176   -0.7231    0.0000 H   0  0  0  0  0  0  0  0  0  0  0  0
   11.0108   -1.2554    0.0000 H   0  0  0  0  0  0  0  0  0  0  0  0
   10.0454    1.5589    0.0000 H   0  0  0  0  0  0  0  0  0  0  0  0
    9.4521    2.0912    0.0000 H   0  0  0  0  0  0  0  0  0  0  0  0
    9.3281    0.0596    0.0000 H   0  0  0  0  0  0  0  0  0  0  0  0
    9.3460    3.4330    0.0000 H   0  0  0  0  0  0  0  0  0  0  0  0
   11.1970   -1.6926    0.0000 H   0  0  0  0  0  0  0  0  0  0  0  0
   11.6758   -2.4271    0.0000 H   0  0  0  0  0  0  0  0  0  0  0  0
   12.4103   -1.9483    0.0000 H   0  0  0  0  0  0  0  0  0  0  0  0
   12.8228    0.0087    0.0000 H   0  0  0  0  0  0  0  0  0  0  0  0
   12.3440    0.7432    0.0000 H   0  0  0  0  0  0  0  0  0  0  0  0
   11.6094    0.2644    0.0000 H   0  0  0  0  0  0  0  0  0  0  0  0
    8.3350    4.8271    0.0000 H   0  0  0  0  0  0  0  0  0  0  0  0
   13.1810   -1.6375    0.0000 H   0  0  0  0  0  0  0  0  0  0  0  0
    6.8671    1.1230    0.0000 H   0  0  0  0  0  0  0  0  0  0  0  0
    4.9272    4.2430    0.0000 H   0  0  0  0  0  0  0  0  0  0  0  0
    4.5981    2.0530    0.0000 H   0  0  0  0  0  0  0  0  0  0  0  0
    6.0010   -0.3770    0.0000 H   0  0  0  0  0  0  0  0  0  0  0  0
    4.5981   -1.1870    0.0000 H   0  0  0  0  0  0  0  0  0  0  0  0
    4.2690   -1.7570    0.0000 H   0  0  0  0  0  0  0  0  0  0  0  0
    1.4631   -1.7570    0.0000 H   0  0  0  0  0  0  0  0  0  0  0  0
    2.8660   -4.1870    0.0000 H   0  0  0  0  0  0  0  0  0  0  0  0
    1.4631   -3.3770    0.0000 H   0  0  0  0  0  0  0  0  0  0  0  0
  1 30  1  0  0  0  0
  2 38  1  0  0  0  0
  3 38  1  0  0  0  0
  4 38  1  0  0  0  0
  5 13  1  0  0  0  0
  5 54  1  0  0  0  0
  6 18  2  0  0  0  0
  7 29  1  0  0  0  0
  7 32  1  0  0  0  0
  8 14  1  0  0  0  0
  8 17  1  0  0  0  0
  8 20  1  0  0  0  0
  9 16  1  0  0  0  0
  9 18  1  0  0  0  0
  9 45  1  0  0  0  0
 10 23  1  0  0  0  0
 10 25  1  0  0  0  0
 10 55  1  0  0  0  0
 11 19  1  0  0  0  0
 11 26  2  0  0  0  0
 12 23  2  0  0  0  0
 12 26  1  0  0  0  0
 13 15  1  0  0  0  0
 13 21  1  0  0  0  0
 13 22  1  0  0  0  0
 14 16  1  0  0  0  0
 14 39  1  0  0  0  0
 14 40  1  0  0  0  0
 15 18  1  0  0  0  0
 15 41  1  0  0  0  0
 15 42  1  0  0  0  0
 16 43  1  0  0  0  0
 16 44  1  0  0  0  0
 17 19  2  0  0  0  0
 17 23  1  0  0  0  0
 19 24  1  0  0  0  0
 20 24  2  0  0  0  0
 20 46  1  0  0  0  0
 21 47  1  0  0  0  0
 21 48  1  0  0  0  0
 21 49  1  0  0  0  0
 22 50  1  0  0  0  0
 22 51  1  0  0  0  0
 22 52  1  0  0  0  0
 24 53  1  0  0  0  0
 25 27  2  0  0  0  0
 25 28  1  0  0  0  0
 26 56  1  0  0  0  0
 27 30  1  0  0  0  0
 27 57  1  0  0  0  0
 28 31  2  0  0  0  0
 28 58  1  0  0  0  0
 29 30  2  0  0  0  0
 29 31  1  0  0  0  0
 31 59  1  0  0  0  0
 32 33  1  0  0  0  0
 32 35  2  0  0  0  0
 33 34  2  0  0  0  0
 33 60  1  0  0  0  0
 34 36  1  0  0  0  0
 34 38  1  0  0  0  0
 35 37  1  0  0  0  0
 35 61  1  0  0  0  0
 36 37  2  0  0  0  0
 36 62  1  0  0  0  0
 37 63  1  0  0  0  0
M  END
> <PUBCHEM_COMPOUND_CID>
11620908

> <PUBCHEM_COMPOUND_CANONICALIZED>
1

> <PUBCHEM_CACTVS_COMPLEXITY>
792

> <PUBCHEM_CACTVS_HBOND_ACCEPTOR>
9

> <PUBCHEM_CACTVS_HBOND_DONOR>
3

> <PUBCHEM_CACTVS_ROTATABLE_BOND>
9

> <PUBCHEM_CACTVS_SUBSKEYS>
AAADceB7sYAEAAAAAAAAAAAAAAAAAWAAAAA8YIAAAAAAAFgB/AAAHwIQCAAADE7BnjQ/9rfMFgCoAzd3dACCiC0xN+AJ2KE+f5iMbvfF+9uWfCju9hPI6CewwBAOAEABAAIACAAAgAIABAAQAAAAAAAAAA==

> <PUBCHEM_IUPAC_OPENEYE_NAME>
N-[2-[4-[3-chloro-4-[3-(trifluoromethyl)phenoxy]anilino]pyrrolo[3,2-d]pyrimidin-5-yl]ethyl]-3-hydroxy-3-methyl-butanamide

> <PUBCHEM_IUPAC_CAS_NAME>
N-[2-[4-[3-chloro-4-[3-(trifluoromethyl)phenoxy]anilino]-5-pyrrolo[3,2-d]pyrimidinyl]ethyl]-3-hydroxy-3-methylbutanamide

> <PUBCHEM_IUPAC_NAME_MARKUP>
<I>N</I>-[2-[4-[3-chloro-4-[3-(trifluoromethyl)phenoxy]anilino]pyrrolo[3,2-d]pyrimidin-5-yl]ethyl]-3-hydroxy-3-methylbutanamide

> <PUBCHEM_IUPAC_NAME>
N-[2-[4-[3-chloro-4-[3-(trifluoromethyl)phenoxy]anilino]pyrrolo[3,2-d]pyrimidin-5-yl]ethyl]-3-hydroxy-3-methylbutanamide

> <PUBCHEM_IUPAC_SYSTEMATIC_NAME>
N-[2-[4-[[3-chloranyl-4-[3-(trifluoromethyl)phenoxy]phenyl]amino]pyrrolo[3,2-d]pyrimidin-5-yl]ethyl]-3-methyl-3-oxidanyl-butanamide

> <PUBCHEM_IUPAC_TRADITIONAL_NAME>
N-[2-[4-[3-chloro-4-[3-(trifluoromethyl)phenoxy]anilino]pyrrolo[3,2-d]pyrimidin-5-yl]ethyl]-3-hydroxy-3-methyl-butyramide

> <PUBCHEM_IUPAC_INCHI>
InChI=1S/C26H25ClF3N5O3/c1-25(2,37)14-22(36)31-9-11-35-10-8-20-23(35)24(33-15-32-20)34-17-6-7-21(19(27)13-17)38-18-5-3-4-16(12-18)26(28,29)30/h3-8,10,12-13,15,37H,9,11,14H2,1-2H3,(H,31,36)(H,32,33,34)

> <PUBCHEM_IUPAC_INCHIKEY>
ZYQXEVJIFYIBHZ-UHFFFAOYSA-N

> <PUBCHEM_XLOGP3_AA>
4.4

> <PUBCHEM_EXACT_MASS>
547.1598019

> <PUBCHEM_MOLECULAR_FORMULA>
C26H25ClF3N5O3

> <PUBCHEM_MOLECULAR_WEIGHT>
548.0

> <PUBCHEM_SMILES>
CC(C)(CC(=O)NCCN1C=CC2=C1C(=NC=N2)NC3=CC(=C(C=C3)OC4=CC=CC(=C4)C(F)(F)F)Cl)O

> <PUBCHEM_OPENEYE_CAN_SMILES>
CC(C)(CC(=O)NCCN1C=CC2=C1C(=NC=N2)NC3=CC(=C(C=C3)OC4=CC=CC(=C4)C(F)(F)F)Cl)O

> <PUBCHEM_OPENEYE_ISO_SMILES>
CC(C)(CC(=O)NCCN1C=CC2=C1C(=NC=N2)NC3=CC(=C(C=C3)OC4=CC=CC(=C4)C(F)(F)F)Cl)O

> <PUBCHEM_CACTVS_TPSA>
101

> <PUBCHEM_MONOISOTOPIC_WEIGHT>
547.1598019

> <PUBCHEM_TOTAL_CHARGE>
0

> <PUBCHEM_HEAVY_ATOM_COUNT>
38

> <PUBCHEM_ATOM_DEF_STEREO_COUNT>
0

> <PUBCHEM_ATOM_UDEF_STEREO_COUNT>
0

> <PUBCHEM_BOND_DEF_STEREO_COUNT>
0

> <PUBCHEM_BOND_UDEF_STEREO_COUNT>
0

> <PUBCHEM_ISOTOPIC_ATOM_COUNT>
0

> <PUBCHEM_COMPONENT_COUNT>
1

> <PUBCHEM_CACTVS_TAUTO_COUNT>
-1

> <PUBCHEM_COORDINATE_TYPE>
1
5
255

> <PUBCHEM_BONDANNOTATIONS>
11  19  8
11  26  8
12  23  8
12  26  8
17  19  8
17  23  8
19  24  8
20  24  8
25  27  8
25  28  8
27  30  8
28  31  8
29  30  8
29  31  8
32  33  8
32  35  8
33  34  8
34  36  8
35  37  8
36  37  8
8  17  8
8  20  8

$$$$
