5330387
  -OEChem-03202500312D

 43 45  0     0  0  0  0  0  0999 V2000
   15.5273   -0.2500    0.0000 Cl  0  0  0  0  0  0  0  0  0  0  0  0
    2.5369    0.2500    0.0000 O   0  0  0  0  0  0  0  0  0  0  0  0
    6.0010    0.2500    0.0000 N   0  0  0  0  0  0  0  0  0  0  0  0
   10.3312   -0.2500    0.0000 N   0  0  0  0  0  0  0  0  0  0  0  0
   12.0632   -0.2500    0.0000 N   0  0  0  0  0  0  0  0  0  0  0  0
    7.7331   -1.7500    0.0000 N   0  0  0  0  0  0  0  0  0  0  0  0
   10.3312    1.7500    0.0000 N   0  0  0  0  0  0  0  0  0  0  0  0
    5.1350   -0.2500    0.0000 C   0  0  0  0  0  0  0  0  0  0  0  0
    4.2690    0.2500    0.0000 C   0  0  0  0  0  0  0  0  0  0  0  0
    6.8671   -0.2500    0.0000 C   0  0  0  0  0  0  0  0  0  0  0  0
    8.5991   -0.2500    0.0000 C   0  0  0  0  0  0  0  0  0  0  0  0
    7.7331    0.2500    0.0000 C   0  0  0  0  0  0  0  0  0  0  0  0
    3.4030   -0.2500    0.0000 C   0  0  0  0  0  0  0  0  0  0  0  0
    9.4651    0.2500    0.0000 C   0  0  0  0  0  0  0  0  0  0  0  0
    6.8671   -1.2500    0.0000 C   0  0  0  0  0  0  0  0  0  0  0  0
    8.5991   -1.2500    0.0000 C   0  0  0  0  0  0  0  0  0  0  0  0
   11.1972    0.2500    0.0000 C   0  0  0  0  0  0  0  0  0  0  0  0
   12.9292    0.2500    0.0000 C   0  0  0  0  0  0  0  0  0  0  0  0
    9.4651    1.2500    0.0000 C   0  0  0  0  0  0  0  0  0  0  0  0
   11.1972    1.2500    0.0000 C   0  0  0  0  0  0  0  0  0  0  0  0
   13.7953   -0.2500    0.0000 C   0  0  0  0  0  0  0  0  0  0  0  0
   12.9292    1.2500    0.0000 C   0  0  0  0  0  0  0  0  0  0  0  0
   14.6613    0.2500    0.0000 C   0  0  0  0  0  0  0  0  0  0  0  0
   13.7953    1.7500    0.0000 C   0  0  0  0  0  0  0  0  0  0  0  0
   14.6613    1.2500    0.0000 C   0  0  0  0  0  0  0  0  0  0  0  0
    4.7365   -0.7249    0.0000 H   0  0  0  0  0  0  0  0  0  0  0  0
    5.5335   -0.7249    0.0000 H   0  0  0  0  0  0  0  0  0  0  0  0
    4.6675    0.7249    0.0000 H   0  0  0  0  0  0  0  0  0  0  0  0
    3.8705    0.7249    0.0000 H   0  0  0  0  0  0  0  0  0  0  0  0
    6.0010    0.8700    0.0000 H   0  0  0  0  0  0  0  0  0  0  0  0
    7.7331    0.8700    0.0000 H   0  0  0  0  0  0  0  0  0  0  0  0
    3.0044   -0.7249    0.0000 H   0  0  0  0  0  0  0  0  0  0  0  0
    3.8015   -0.7249    0.0000 H   0  0  0  0  0  0  0  0  0  0  0  0
    6.3301   -1.5600    0.0000 H   0  0  0  0  0  0  0  0  0  0  0  0
    9.1360   -1.5600    0.0000 H   0  0  0  0  0  0  0  0  0  0  0  0
   12.0632   -0.8700    0.0000 H   0  0  0  0  0  0  0  0  0  0  0  0
    8.9282    1.5600    0.0000 H   0  0  0  0  0  0  0  0  0  0  0  0
   11.7341    1.5600    0.0000 H   0  0  0  0  0  0  0  0  0  0  0  0
   13.7953   -0.8700    0.0000 H   0  0  0  0  0  0  0  0  0  0  0  0
   12.3923    1.5600    0.0000 H   0  0  0  0  0  0  0  0  0  0  0  0
    2.0000   -0.0600    0.0000 H   0  0  0  0  0  0  0  0  0  0  0  0
   13.7953    2.3700    0.0000 H   0  0  0  0  0  0  0  0  0  0  0  0
   15.1982    1.5600    0.0000 H   0  0  0  0  0  0  0  0  0  0  0  0
  1 23  1  0  0  0  0
  2 13  1  0  0  0  0
  2 41  1  0  0  0  0
  3  8  1  0  0  0  0
  3 10  1  0  0  0  0
  3 30  1  0  0  0  0
  4 14  1  0  0  0  0
  4 17  2  0  0  0  0
  5 17  1  0  0  0  0
  5 18  1  0  0  0  0
  5 36  1  0  0  0  0
  6 15  1  0  0  0  0
  6 16  2  0  0  0  0
  7 19  1  0  0  0  0
  7 20  2  0  0  0  0
  8  9  1  0  0  0  0
  8 26  1  0  0  0  0
  8 27  1  0  0  0  0
  9 13  1  0  0  0  0
  9 28  1  0  0  0  0
  9 29  1  0  0  0  0
 10 12  1  0  0  0  0
 10 15  2  0  0  0  0
 11 12  2  0  0  0  0
 11 14  1  0  0  0  0
 11 16  1  0  0  0  0
 12 31  1  0  0  0  0
 13 32  1  0  0  0  0
 13 33  1  0  0  0  0
 14 19  2  0  0  0  0
 15 34  1  0  0  0  0
 16 35  1  0  0  0  0
 17 20  1  0  0  0  0
 18 21  2  0  0  0  0
 18 22  1  0  0  0  0
 19 37  1  0  0  0  0
 20 38  1  0  0  0  0
 21 23  1  0  0  0  0
 21 39  1  0  0  0  0
 22 24  2  0  0  0  0
 22 40  1  0  0  0  0
 23 25  2  0  0  0  0
 24 25  1  0  0  0  0
 24 42  1  0  0  0  0
 25 43  1  0  0  0  0
M  END
> <PUBCHEM_COMPOUND_CID>
5330387

> <PUBCHEM_COMPOUND_CANONICALIZED>
1

> <PUBCHEM_CACTVS_COMPLEXITY>
388

> <PUBCHEM_CACTVS_HBOND_ACCEPTOR>
6

> <PUBCHEM_CACTVS_HBOND_DONOR>
3

> <PUBCHEM_CACTVS_ROTATABLE_BOND>
7

> <PUBCHEM_CACTVS_SUBSKEYS>
AAADceB7oAAEAAAAAAAAAAAAAAAAAAAAAAA8WIAAAAAAAAAB8AAAHgIQCAAADArhniY98JLIEgCgAzZnZACCgC0xFyAJ2KA4dpiIcOLB25GUYAhqkALIyCcQAAAOAAAAAAIAAAAAAAAABAAAAAAAAAAAAA==

> <PUBCHEM_IUPAC_OPENEYE_NAME>
3-[[5-[6-(3-chloroanilino)pyrazin-2-yl]-3-pyridyl]amino]propan-1-ol

> <PUBCHEM_IUPAC_CAS_NAME>
3-[[5-[6-(3-chloroanilino)-2-pyrazinyl]-3-pyridinyl]amino]-1-propanol

> <PUBCHEM_IUPAC_NAME_MARKUP>
3-[[5-[6-(3-chloroanilino)pyrazin-2-yl]pyridin-3-yl]amino]propan-1-ol

> <PUBCHEM_IUPAC_NAME>
3-[[5-[6-(3-chloroanilino)pyrazin-2-yl]pyridin-3-yl]amino]propan-1-ol

> <PUBCHEM_IUPAC_SYSTEMATIC_NAME>
3-[[5-[6-[(3-chlorophenyl)amino]pyrazin-2-yl]pyridin-3-yl]amino]propan-1-ol

> <PUBCHEM_IUPAC_TRADITIONAL_NAME>
3-[[5-[6-(3-chloroanilino)pyrazin-2-yl]-3-pyridyl]amino]propan-1-ol

> <PUBCHEM_IUPAC_INCHI>
InChI=1S/C18H18ClN5O/c19-14-3-1-4-15(8-14)23-18-12-21-11-17(24-18)13-7-16(10-20-9-13)22-5-2-6-25/h1,3-4,7-12,22,25H,2,5-6H2,(H,23,24)

> <PUBCHEM_IUPAC_INCHIKEY>
UCHQCSDTPQKAKL-UHFFFAOYSA-N

> <PUBCHEM_XLOGP3_AA>
3.1

> <PUBCHEM_EXACT_MASS>
355.1199879

> <PUBCHEM_MOLECULAR_FORMULA>
C18H18ClN5O

> <PUBCHEM_MOLECULAR_WEIGHT>
355.8

> <PUBCHEM_SMILES>
C1=CC(=CC(=C1)Cl)NC2=NC(=CN=C2)C3=CC(=CN=C3)NCCCO

> <PUBCHEM_OPENEYE_CAN_SMILES>
C1=CC(=CC(=C1)Cl)NC2=NC(=CN=C2)C3=CC(=CN=C3)NCCCO

> <PUBCHEM_OPENEYE_ISO_SMILES>
C1=CC(=CC(=C1)Cl)NC2=NC(=CN=C2)C3=CC(=CN=C3)NCCCO

> <PUBCHEM_CACTVS_TPSA>
83

> <PUBCHEM_MONOISOTOPIC_WEIGHT>
355.1199879

> <PUBCHEM_TOTAL_CHARGE>
0

> <PUBCHEM_HEAVY_ATOM_COUNT>
25

> <PUBCHEM_ATOM_DEF_STEREO_COUNT>
0

> <PUBCHEM_ATOM_UDEF_STEREO_COUNT>
0

> <PUBCHEM_BOND_DEF_STEREO_COUNT>
0

> <PUBCHEM_BOND_UDEF_STEREO_COUNT>
0

> <PUBCHEM_ISOTOPIC_ATOM_COUNT>
0

> <PUBCHEM_COMPONENT_COUNT>
1

> <PUBCHEM_CACTVS_TAUTO_COUNT>
-1

> <PUBCHEM_COORDINATE_TYPE>
1
5
255

> <PUBCHEM_BONDANNOTATIONS>
10  12  8
10  15  8
11  12  8
11  16  8
14  19  8
17  20  8
18  21  8
18  22  8
21  23  8
22  24  8
23  25  8
24  25  8
4  14  8
4  17  8
6  15  8
6  16  8
7  19  8
7  20  8

$$$$
