10436840
  -OEChem-03202500202D

 74 75  0     0  0  0  0  0  0999 V2000
    5.3147   -0.8998    0.0000 N   0  0  0  0  0  0  0  0  0  0  0  0
    3.7320   -1.2362    0.0000 N   0  3  0  0  0  0  0  0  0  0  0  0
   11.0562    1.1092    0.0000 C   0  0  0  0  0  0  0  0  0  0  0  0
   10.0616    1.2137    0.0000 C   0  0  0  0  0  0  0  0  0  0  0  0
   11.6440    1.9182    0.0000 C   0  0  0  0  0  0  0  0  0  0  0  0
    9.4739    0.4047    0.0000 C   0  0  0  0  0  0  0  0  0  0  0  0
   12.6385    1.8137    0.0000 C   0  0  0  0  0  0  0  0  0  0  0  0
    8.4793    0.5092    0.0000 C   0  0  0  0  0  0  0  0  0  0  0  0
   13.2263    2.6227    0.0000 C   0  0  0  0  0  0  0  0  0  0  0  0
    7.8916   -0.2998    0.0000 C   0  0  0  0  0  0  0  0  0  0  0  0
   14.2208    2.5182    0.0000 C   0  0  0  0  0  0  0  0  0  0  0  0
    6.8970   -0.1953    0.0000 C   0  0  0  0  0  0  0  0  0  0  0  0
   14.8086    3.3272    0.0000 C   0  0  0  0  0  0  0  0  0  0  0  0
    6.3092   -1.0043    0.0000 C   0  0  0  0  0  0  0  0  0  0  0  0
   15.8031    3.2226    0.0000 C   0  0  0  0  0  0  0  0  0  0  0  0
    4.6456   -1.6429    0.0000 C   0  0  0  0  0  0  0  0  0  0  0  0
   16.3909    4.0317    0.0000 C   0  0  0  0  0  0  0  0  0  0  0  0
    4.8147   -0.0337    0.0000 C   0  0  0  0  0  0  0  0  0  0  0  0
    3.8366   -0.2416    0.0000 C   0  0  0  0  0  0  0  0  0  0  0  0
   17.3854    3.9271    0.0000 C   0  0  0  0  0  0  0  0  0  0  0  0
    2.8660   -1.7362    0.0000 C   0  0  0  0  0  0  0  0  0  0  0  0
    4.8535   -2.6210    0.0000 C   0  0  0  0  0  0  0  0  0  0  0  0
    2.8660   -2.7362    0.0000 C   0  0  0  0  0  0  0  0  0  0  0  0
   17.9732    4.7362    0.0000 C   0  0  0  0  0  0  0  0  0  0  0  0
    2.0000   -3.2362    0.0000 C   0  0  0  0  0  0  0  0  0  0  0  0
    3.7320   -3.2362    0.0000 C   0  0  0  0  0  0  0  0  0  0  0  0
    2.0000   -4.2362    0.0000 C   0  0  0  0  0  0  0  0  0  0  0  0
    3.7320   -4.2362    0.0000 C   0  0  0  0  0  0  0  0  0  0  0  0
    2.8660   -4.7362    0.0000 C   0  0  0  0  0  0  0  0  0  0  0  0
   10.8853    0.5132    0.0000 H   0  0  0  0  0  0  0  0  0  0  0  0
   11.6134    0.8374    0.0000 H   0  0  0  0  0  0  0  0  0  0  0  0
   10.2325    1.8097    0.0000 H   0  0  0  0  0  0  0  0  0  0  0  0
    9.5044    1.4855    0.0000 H   0  0  0  0  0  0  0  0  0  0  0  0
   11.8148    2.5142    0.0000 H   0  0  0  0  0  0  0  0  0  0  0  0
   11.0867    2.1900    0.0000 H   0  0  0  0  0  0  0  0  0  0  0  0
    9.3030   -0.1913    0.0000 H   0  0  0  0  0  0  0  0  0  0  0  0
   10.0311    0.1329    0.0000 H   0  0  0  0  0  0  0  0  0  0  0  0
   12.4676    1.2177    0.0000 H   0  0  0  0  0  0  0  0  0  0  0  0
   13.1957    1.5419    0.0000 H   0  0  0  0  0  0  0  0  0  0  0  0
    8.6502    1.1052    0.0000 H   0  0  0  0  0  0  0  0  0  0  0  0
    7.9221    0.7810    0.0000 H   0  0  0  0  0  0  0  0  0  0  0  0
   13.3972    3.2187    0.0000 H   0  0  0  0  0  0  0  0  0  0  0  0
   12.6690    2.8945    0.0000 H   0  0  0  0  0  0  0  0  0  0  0  0
    7.7207   -0.8958    0.0000 H   0  0  0  0  0  0  0  0  0  0  0  0
    8.4488   -0.5716    0.0000 H   0  0  0  0  0  0  0  0  0  0  0  0
   14.0499    1.9222    0.0000 H   0  0  0  0  0  0  0  0  0  0  0  0
   14.7780    2.2464    0.0000 H   0  0  0  0  0  0  0  0  0  0  0  0
    7.0679    0.4007    0.0000 H   0  0  0  0  0  0  0  0  0  0  0  0
    6.3398    0.0765    0.0000 H   0  0  0  0  0  0  0  0  0  0  0  0
   14.9795    3.9232    0.0000 H   0  0  0  0  0  0  0  0  0  0  0  0
   14.2513    3.5990    0.0000 H   0  0  0  0  0  0  0  0  0  0  0  0
    6.1384   -1.6003    0.0000 H   0  0  0  0  0  0  0  0  0  0  0  0
    6.8665   -1.2761    0.0000 H   0  0  0  0  0  0  0  0  0  0  0  0
   15.6322    2.6267    0.0000 H   0  0  0  0  0  0  0  0  0  0  0  0
   16.3603    2.9509    0.0000 H   0  0  0  0  0  0  0  0  0  0  0  0
   16.5618    4.6276    0.0000 H   0  0  0  0  0  0  0  0  0  0  0  0
   15.8336    4.3035    0.0000 H   0  0  0  0  0  0  0  0  0  0  0  0
    5.0669    0.5327    0.0000 H   0  0  0  0  0  0  0  0  0  0  0  0
    3.3758    0.1732    0.0000 H   0  0  0  0  0  0  0  0  0  0  0  0
   17.2145    3.3312    0.0000 H   0  0  0  0  0  0  0  0  0  0  0  0
   17.9427    3.6554    0.0000 H   0  0  0  0  0  0  0  0  0  0  0  0
    2.6540   -1.1536    0.0000 H   0  0  0  0  0  0  0  0  0  0  0  0
    2.2554   -1.8438    0.0000 H   0  0  0  0  0  0  0  0  0  0  0  0
    4.2471   -2.7500    0.0000 H   0  0  0  0  0  0  0  0  0  0  0  0
    4.9824   -3.2275    0.0000 H   0  0  0  0  0  0  0  0  0  0  0  0
    5.4600   -2.4921    0.0000 H   0  0  0  0  0  0  0  0  0  0  0  0
   18.4748    4.3717    0.0000 H   0  0  0  0  0  0  0  0  0  0  0  0
   18.3376    5.2378    0.0000 H   0  0  0  0  0  0  0  0  0  0  0  0
   17.4716    5.1006    0.0000 H   0  0  0  0  0  0  0  0  0  0  0  0
    1.4631   -2.9262    0.0000 H   0  0  0  0  0  0  0  0  0  0  0  0
    4.2690   -2.9262    0.0000 H   0  0  0  0  0  0  0  0  0  0  0  0
    1.4631   -4.5462    0.0000 H   0  0  0  0  0  0  0  0  0  0  0  0
    4.2690   -4.5462    0.0000 H   0  0  0  0  0  0  0  0  0  0  0  0
    2.8660   -5.3562    0.0000 H   0  0  0  0  0  0  0  0  0  0  0  0
  1 14  1  0  0  0  0
  1 16  1  0  0  0  0
  1 18  1  0  0  0  0
  2 16  2  0  0  0  0
  2 19  1  0  0  0  0
  2 21  1  0  0  0  0
  3  4  1  0  0  0  0
  3  5  1  0  0  0  0
  3 30  1  0  0  0  0
  3 31  1  0  0  0  0
  4  6  1  0  0  0  0
  4 32  1  0  0  0  0
  4 33  1  0  0  0  0
  5  7  1  0  0  0  0
  5 34  1  0  0  0  0
  5 35  1  0  0  0  0
  6  8  1  0  0  0  0
  6 36  1  0  0  0  0
  6 37  1  0  0  0  0
  7  9  1  0  0  0  0
  7 38  1  0  0  0  0
  7 39  1  0  0  0  0
  8 10  1  0  0  0  0
  8 40  1  0  0  0  0
  8 41  1  0  0  0  0
  9 11  1  0  0  0  0
  9 42  1  0  0  0  0
  9 43  1  0  0  0  0
 10 12  1  0  0  0  0
 10 44  1  0  0  0  0
 10 45  1  0  0  0  0
 11 13  1  0  0  0  0
 11 46  1  0  0  0  0
 11 47  1  0  0  0  0
 12 14  1  0  0  0  0
 12 48  1  0  0  0  0
 12 49  1  0  0  0  0
 13 15  1  0  0  0  0
 13 50  1  0  0  0  0
 13 51  1  0  0  0  0
 14 52  1  0  0  0  0
 14 53  1  0  0  0  0
 15 17  1  0  0  0  0
 15 54  1  0  0  0  0
 15 55  1  0  0  0  0
 16 22  1  0  0  0  0
 17 20  1  0  0  0  0
 17 56  1  0  0  0  0
 17 57  1  0  0  0  0
 18 19  2  0  0  0  0
 18 58  1  0  0  0  0
 19 59  1  0  0  0  0
 20 24  1  0  0  0  0
 20 60  1  0  0  0  0
 20 61  1  0  0  0  0
 21 23  1  0  0  0  0
 21 62  1  0  0  0  0
 21 63  1  0  0  0  0
 22 64  1  0  0  0  0
 22 65  1  0  0  0  0
 22 66  1  0  0  0  0
 23 25  2  0  0  0  0
 23 26  1  0  0  0  0
 24 67  1  0  0  0  0
 24 68  1  0  0  0  0
 24 69  1  0  0  0  0
 25 27  1  0  0  0  0
 25 70  1  0  0  0  0
 26 28  2  0  0  0  0
 26 71  1  0  0  0  0
 27 29  2  0  0  0  0
 27 72  1  0  0  0  0
 28 29  1  0  0  0  0
 28 73  1  0  0  0  0
 29 74  1  0  0  0  0
M  CHG  1   2   1
M  END
> <PUBCHEM_COMPOUND_CID>
10436840

> <PUBCHEM_COMPOUND_CANONICALIZED>
1

> <PUBCHEM_CACTVS_COMPLEXITY>
364

> <PUBCHEM_CACTVS_HBOND_ACCEPTOR>
0

> <PUBCHEM_CACTVS_HBOND_DONOR>
0

> <PUBCHEM_CACTVS_ROTATABLE_BOND>
17

> <PUBCHEM_CACTVS_SUBSKEYS>
AAADcfB7AAAAAAAAAAAAAAAAAAAAAWAAAAAwAAAAAAAAAAABwAAAHAAAAAAADADBGwQ/kJcMEACgAjJnZACCgC0xEqAJyAAYNIiIaCKAmRGUIAhogAKIiCcQgIAOAAAAAAAAAAAAAAAAAAAAAAAAAAAAAA==

> <PUBCHEM_IUPAC_OPENEYE_NAME>
1-benzyl-3-hexadecyl-2-methyl-imidazol-1-ium

> <PUBCHEM_IUPAC_CAS_NAME>
1-hexadecyl-2-methyl-3-(phenylmethyl)imidazol-3-ium

> <PUBCHEM_IUPAC_NAME_MARKUP>
1-benzyl-3-hexadecyl-2-methylimidazol-1-ium

> <PUBCHEM_IUPAC_NAME>
1-benzyl-3-hexadecyl-2-methylimidazol-1-ium

> <PUBCHEM_IUPAC_SYSTEMATIC_NAME>
1-hexadecyl-2-methyl-3-(phenylmethyl)imidazol-3-ium

> <PUBCHEM_IUPAC_TRADITIONAL_NAME>
1-benzyl-3-cetyl-2-methyl-imidazol-1-ium

> <PUBCHEM_IUPAC_INCHI>
InChI=1S/C27H45N2/c1-3-4-5-6-7-8-9-10-11-12-13-14-15-19-22-28-23-24-29(26(28)2)25-27-20-17-16-18-21-27/h16-18,20-21,23-24H,3-15,19,22,25H2,1-2H3/q+1

> <PUBCHEM_IUPAC_INCHIKEY>
ZZXUNAFAKNKXFW-UHFFFAOYSA-N

> <PUBCHEM_XLOGP3_AA>
9.8

> <PUBCHEM_EXACT_MASS>
397.358274444

> <PUBCHEM_MOLECULAR_FORMULA>
C27H45N2+

> <PUBCHEM_MOLECULAR_WEIGHT>
397.7

> <PUBCHEM_SMILES>
CCCCCCCCCCCCCCCCN1C=C[N+](=C1C)CC2=CC=CC=C2

> <PUBCHEM_OPENEYE_CAN_SMILES>
CCCCCCCCCCCCCCCCN1C=C[N+](=C1C)CC2=CC=CC=C2

> <PUBCHEM_OPENEYE_ISO_SMILES>
CCCCCCCCCCCCCCCCN1C=C[N+](=C1C)CC2=CC=CC=C2

> <PUBCHEM_CACTVS_TPSA>
8.8

> <PUBCHEM_MONOISOTOPIC_WEIGHT>
397.358274444

> <PUBCHEM_TOTAL_CHARGE>
1

> <PUBCHEM_HEAVY_ATOM_COUNT>
29

> <PUBCHEM_ATOM_DEF_STEREO_COUNT>
0

> <PUBCHEM_ATOM_UDEF_STEREO_COUNT>
0

> <PUBCHEM_BOND_DEF_STEREO_COUNT>
0

> <PUBCHEM_BOND_UDEF_STEREO_COUNT>
0

> <PUBCHEM_ISOTOPIC_ATOM_COUNT>
0

> <PUBCHEM_COMPONENT_COUNT>
1

> <PUBCHEM_CACTVS_TAUTO_COUNT>
-1

> <PUBCHEM_COORDINATE_TYPE>
1
5
255

> <PUBCHEM_BONDANNOTATIONS>
1  16  8
1  18  8
18  19  8
2  16  8
2  19  8
23  25  8
23  26  8
25  27  8
26  28  8
27  29  8
28  29  8

$$$$
