25167072
  -OEChem-03202500272D

 45 49  0     0  0  0  0  0  0999 V2000
    4.9889    0.4596    0.0000 N   0  0  0  0  0  0  0  0  0  0  0  0
    3.7320   -0.7957    0.0000 N   0  0  0  0  0  0  0  0  0  0  0  0
    4.6783   -2.1004    0.0000 N   0  0  0  0  0  0  0  0  0  0  0  0
    2.8660   -2.2957    0.0000 N   0  0  0  0  0  0  0  0  0  0  0  0
    9.2337   -1.5049    0.0000 N   0  0  0  0  0  0  0  0  0  0  0  0
    9.3368   -2.4936    0.0000 N   0  0  0  0  0  0  0  0  0  0  0  0
    4.3211    1.2039    0.0000 C   0  0  0  0  0  0  0  0  0  0  0  0
    4.6318    2.1544    0.0000 C   0  0  0  0  0  0  0  0  0  0  0  0
    3.3426    0.9977    0.0000 C   0  0  0  0  0  0  0  0  0  0  0  0
    3.9639    2.8987    0.0000 C   0  0  0  0  0  0  0  0  0  0  0  0
    2.6747    1.7420    0.0000 C   0  0  0  0  0  0  0  0  0  0  0  0
    2.9854    2.6925    0.0000 C   0  0  0  0  0  0  0  0  0  0  0  0
    4.6783   -0.4909    0.0000 C   0  0  0  0  0  0  0  0  0  0  0  0
    5.2619   -1.2957    0.0000 C   0  0  0  0  0  0  0  0  0  0  0  0
    3.7320   -1.7957    0.0000 C   0  0  0  0  0  0  0  0  0  0  0  0
    6.2619   -1.2957    0.0000 C   0  0  0  0  0  0  0  0  0  0  0  0
    2.8660   -0.2957    0.0000 C   0  0  0  0  0  0  0  0  0  0  0  0
    6.7619   -2.1617    0.0000 C   0  0  0  0  0  0  0  0  0  0  0  0
    6.7619   -0.4296    0.0000 C   0  0  0  0  0  0  0  0  0  0  0  0
    7.7619   -2.1617    0.0000 C   0  0  0  0  0  0  0  0  0  0  0  0
    8.2619   -1.2957    0.0000 C   0  0  0  0  0  0  0  0  0  0  0  0
    2.0000   -0.7957    0.0000 C   0  0  0  0  0  0  0  0  0  0  0  0
    7.7619   -0.4296    0.0000 C   0  0  0  0  0  0  0  0  0  0  0  0
    2.0000   -1.7957    0.0000 C   0  0  0  0  0  0  0  0  0  0  0  0
    8.4290   -2.8987    0.0000 C   0  0  0  0  0  0  0  0  0  0  0  0
    4.1285    0.6146    0.0000 H   0  0  0  0  0  0  0  0  0  0  0  0
    5.1787    1.8624    0.0000 H   0  0  0  0  0  0  0  0  0  0  0  0
    5.0143    2.6423    0.0000 H   0  0  0  0  0  0  0  0  0  0  0  0
    2.8162    0.6700    0.0000 H   0  0  0  0  0  0  0  0  0  0  0  0
    3.5738    0.4224    0.0000 H   0  0  0  0  0  0  0  0  0  0  0  0
    4.4903    3.2264    0.0000 H   0  0  0  0  0  0  0  0  0  0  0  0
    3.7326    3.4740    0.0000 H   0  0  0  0  0  0  0  0  0  0  0  0
    2.1278    2.0340    0.0000 H   0  0  0  0  0  0  0  0  0  0  0  0
    2.2922    1.2541    0.0000 H   0  0  0  0  0  0  0  0  0  0  0  0
    2.9648    3.3122    0.0000 H   0  0  0  0  0  0  0  0  0  0  0  0
    2.3716    2.7798    0.0000 H   0  0  0  0  0  0  0  0  0  0  0  0
    5.5956    0.5874    0.0000 H   0  0  0  0  0  0  0  0  0  0  0  0
    2.8660    0.3243    0.0000 H   0  0  0  0  0  0  0  0  0  0  0  0
    6.4519   -2.6986    0.0000 H   0  0  0  0  0  0  0  0  0  0  0  0
    6.4519    0.1073    0.0000 H   0  0  0  0  0  0  0  0  0  0  0  0
    1.4631   -0.4857    0.0000 H   0  0  0  0  0  0  0  0  0  0  0  0
    8.0719    0.1073    0.0000 H   0  0  0  0  0  0  0  0  0  0  0  0
    1.4631   -2.1057    0.0000 H   0  0  0  0  0  0  0  0  0  0  0  0
    8.3011   -3.5054    0.0000 H   0  0  0  0  0  0  0  0  0  0  0  0
    9.6952   -1.0908    0.0000 H   0  0  0  0  0  0  0  0  0  0  0  0
  1  7  1  0  0  0  0
  1 13  1  0  0  0  0
  1 37  1  0  0  0  0
  2 13  1  0  0  0  0
  2 15  1  0  0  0  0
  2 17  1  0  0  0  0
  3 14  1  0  0  0  0
  3 15  2  0  0  0  0
  4 15  1  0  0  0  0
  4 24  2  0  0  0  0
  5  6  1  0  0  0  0
  5 21  1  0  0  0  0
  5 45  1  0  0  0  0
  6 25  2  0  0  0  0
  7  8  1  0  0  0  0
  7  9  1  0  0  0  0
  7 26  1  0  0  0  0
  8 10  1  0  0  0  0
  8 27  1  0  0  0  0
  8 28  1  0  0  0  0
  9 11  1  0  0  0  0
  9 29  1  0  0  0  0
  9 30  1  0  0  0  0
 10 12  1  0  0  0  0
 10 31  1  0  0  0  0
 10 32  1  0  0  0  0
 11 12  1  0  0  0  0
 11 33  1  0  0  0  0
 11 34  1  0  0  0  0
 12 35  1  0  0  0  0
 12 36  1  0  0  0  0
 13 14  2  0  0  0  0
 14 16  1  0  0  0  0
 16 18  2  0  0  0  0
 16 19  1  0  0  0  0
 17 22  2  0  0  0  0
 17 38  1  0  0  0  0
 18 20  1  0  0  0  0
 18 39  1  0  0  0  0
 19 23  2  0  0  0  0
 19 40  1  0  0  0  0
 20 21  2  0  0  0  0
 20 25  1  0  0  0  0
 21 23  1  0  0  0  0
 22 24  1  0  0  0  0
 22 41  1  0  0  0  0
 23 42  1  0  0  0  0
 24 43  1  0  0  0  0
 25 44  1  0  0  0  0
M  END
> <PUBCHEM_COMPOUND_CID>
25167072

> <PUBCHEM_COMPOUND_CANONICALIZED>
1

> <PUBCHEM_CACTVS_COMPLEXITY>
453

> <PUBCHEM_CACTVS_HBOND_ACCEPTOR>
4

> <PUBCHEM_CACTVS_HBOND_DONOR>
2

> <PUBCHEM_CACTVS_ROTATABLE_BOND>
3

> <PUBCHEM_CACTVS_SUBSKEYS>
AAADceB7gAAAAAAAAAAAAAAAAAAAAWLAAAA8YIAAAAAAAFgB/gAAHAAYAAAADCjBHgQ98PfvGACiAzZnZACShC0xkqAZ+aA4dJiIaOLA2dGUpAhomALIyCcQgMAOCAACAAACAAAQAAQAAAQAAAAAAAAAAA==

> <PUBCHEM_IUPAC_OPENEYE_NAME>
N-cyclohexyl-2-(1H-indazol-5-yl)imidazo[1,2-a]pyrimidin-3-amine

> <PUBCHEM_IUPAC_CAS_NAME>
N-cyclohexyl-2-(1H-indazol-5-yl)-3-imidazo[1,2-a]pyrimidinamine

> <PUBCHEM_IUPAC_NAME_MARKUP>
<I>N</I>-cyclohexyl-2-(1<I>H</I>-indazol-5-yl)imidazo[1,2-a]pyrimidin-3-amine

> <PUBCHEM_IUPAC_NAME>
N-cyclohexyl-2-(1H-indazol-5-yl)imidazo[1,2-a]pyrimidin-3-amine

> <PUBCHEM_IUPAC_SYSTEMATIC_NAME>
N-cyclohexyl-2-(1H-indazol-5-yl)imidazo[1,2-a]pyrimidin-3-amine

> <PUBCHEM_IUPAC_TRADITIONAL_NAME>
cyclohexyl-[2-(1H-indazol-5-yl)imidazo[1,2-a]pyrimidin-3-yl]amine

> <PUBCHEM_IUPAC_INCHI>
InChI=1S/C19H20N6/c1-2-5-15(6-3-1)22-18-17(23-19-20-9-4-10-25(18)19)13-7-8-16-14(11-13)12-21-24-16/h4,7-12,15,22H,1-3,5-6H2,(H,21,24)

> <PUBCHEM_IUPAC_INCHIKEY>
CALAEFSQWBJMDU-UHFFFAOYSA-N

> <PUBCHEM_XLOGP3_AA>
4.5

> <PUBCHEM_EXACT_MASS>
332.17494466

> <PUBCHEM_MOLECULAR_FORMULA>
C19H20N6

> <PUBCHEM_MOLECULAR_WEIGHT>
332.4

> <PUBCHEM_SMILES>
C1CCC(CC1)NC2=C(N=C3N2C=CC=N3)C4=CC5=C(C=C4)NN=C5

> <PUBCHEM_OPENEYE_CAN_SMILES>
C1CCC(CC1)NC2=C(N=C3N2C=CC=N3)C4=CC5=C(C=C4)NN=C5

> <PUBCHEM_OPENEYE_ISO_SMILES>
C1CCC(CC1)NC2=C(N=C3N2C=CC=N3)C4=CC5=C(C=C4)NN=C5

> <PUBCHEM_CACTVS_TPSA>
70.9

> <PUBCHEM_MONOISOTOPIC_WEIGHT>
332.17494466

> <PUBCHEM_TOTAL_CHARGE>
0

> <PUBCHEM_HEAVY_ATOM_COUNT>
25

> <PUBCHEM_ATOM_DEF_STEREO_COUNT>
0

> <PUBCHEM_ATOM_UDEF_STEREO_COUNT>
0

> <PUBCHEM_BOND_DEF_STEREO_COUNT>
0

> <PUBCHEM_BOND_UDEF_STEREO_COUNT>
0

> <PUBCHEM_ISOTOPIC_ATOM_COUNT>
0

> <PUBCHEM_COMPONENT_COUNT>
1

> <PUBCHEM_CACTVS_TAUTO_COUNT>
-1

> <PUBCHEM_COORDINATE_TYPE>
1
5
255

> <PUBCHEM_BONDANNOTATIONS>
13  14  8
16  18  8
16  19  8
17  22  8
18  20  8
19  23  8
2  13  8
2  15  8
2  17  8
20  21  8
20  25  8
21  23  8
22  24  8
3  14  8
3  15  8
4  15  8
4  24  8
5  21  8
5  6  8
6  25  8

$$$$
