5330389
  -OEChem-03202500382D

 47 49  0     0  0  0  0  0  0999 V2000
   14.9904   -0.2500    0.0000 Cl  0  0  0  0  0  0  0  0  0  0  0  0
    2.8660   -0.2500    0.0000 N   0  0  0  0  0  0  0  0  0  0  0  0
    5.4641    0.2500    0.0000 N   0  0  0  0  0  0  0  0  0  0  0  0
    7.1962   -1.7500    0.0000 N   0  0  0  0  0  0  0  0  0  0  0  0
    9.7942   -0.2500    0.0000 N   0  0  0  0  0  0  0  0  0  0  0  0
   11.5263   -0.2500    0.0000 N   0  0  0  0  0  0  0  0  0  0  0  0
    9.7942    1.7500    0.0000 N   0  0  0  0  0  0  0  0  0  0  0  0
    3.7320    0.2500    0.0000 C   0  0  0  0  0  0  0  0  0  0  0  0
    4.5981   -0.2500    0.0000 C   0  0  0  0  0  0  0  0  0  0  0  0
    6.3301   -0.2500    0.0000 C   0  0  0  0  0  0  0  0  0  0  0  0
    7.1962    0.2500    0.0000 C   0  0  0  0  0  0  0  0  0  0  0  0
    8.0622   -0.2500    0.0000 C   0  0  0  0  0  0  0  0  0  0  0  0
    2.0000    0.2500    0.0000 C   0  0  0  0  0  0  0  0  0  0  0  0
    2.8660   -1.2500    0.0000 C   0  0  0  0  0  0  0  0  0  0  0  0
    8.9282    0.2500    0.0000 C   0  0  0  0  0  0  0  0  0  0  0  0
    6.3301   -1.2500    0.0000 C   0  0  0  0  0  0  0  0  0  0  0  0
    8.0622   -1.2500    0.0000 C   0  0  0  0  0  0  0  0  0  0  0  0
   10.6603    0.2500    0.0000 C   0  0  0  0  0  0  0  0  0  0  0  0
    8.9282    1.2500    0.0000 C   0  0  0  0  0  0  0  0  0  0  0  0
   12.3923    0.2500    0.0000 C   0  0  0  0  0  0  0  0  0  0  0  0
   10.6603    1.2500    0.0000 C   0  0  0  0  0  0  0  0  0  0  0  0
   13.2583   -0.2500    0.0000 C   0  0  0  0  0  0  0  0  0  0  0  0
   12.3923    1.2500    0.0000 C   0  0  0  0  0  0  0  0  0  0  0  0
   14.1244    0.2500    0.0000 C   0  0  0  0  0  0  0  0  0  0  0  0
   13.2583    1.7500    0.0000 C   0  0  0  0  0  0  0  0  0  0  0  0
   14.1244    1.2500    0.0000 C   0  0  0  0  0  0  0  0  0  0  0  0
    4.1306    0.7249    0.0000 H   0  0  0  0  0  0  0  0  0  0  0  0
    3.3335    0.7249    0.0000 H   0  0  0  0  0  0  0  0  0  0  0  0
    4.1996   -0.7249    0.0000 H   0  0  0  0  0  0  0  0  0  0  0  0
    4.9966   -0.7249    0.0000 H   0  0  0  0  0  0  0  0  0  0  0  0
    5.4641    0.8700    0.0000 H   0  0  0  0  0  0  0  0  0  0  0  0
    7.1962    0.8700    0.0000 H   0  0  0  0  0  0  0  0  0  0  0  0
    2.3100    0.7869    0.0000 H   0  0  0  0  0  0  0  0  0  0  0  0
    1.4631    0.5600    0.0000 H   0  0  0  0  0  0  0  0  0  0  0  0
    1.6900   -0.2869    0.0000 H   0  0  0  0  0  0  0  0  0  0  0  0
    2.2460   -1.2500    0.0000 H   0  0  0  0  0  0  0  0  0  0  0  0
    2.8660   -1.8700    0.0000 H   0  0  0  0  0  0  0  0  0  0  0  0
    3.4860   -1.2500    0.0000 H   0  0  0  0  0  0  0  0  0  0  0  0
    5.7932   -1.5600    0.0000 H   0  0  0  0  0  0  0  0  0  0  0  0
    8.5991   -1.5600    0.0000 H   0  0  0  0  0  0  0  0  0  0  0  0
    8.3913    1.5600    0.0000 H   0  0  0  0  0  0  0  0  0  0  0  0
   11.5263   -0.8700    0.0000 H   0  0  0  0  0  0  0  0  0  0  0  0
   11.1972    1.5600    0.0000 H   0  0  0  0  0  0  0  0  0  0  0  0
   13.2583   -0.8700    0.0000 H   0  0  0  0  0  0  0  0  0  0  0  0
   11.8554    1.5600    0.0000 H   0  0  0  0  0  0  0  0  0  0  0  0
   13.2583    2.3700    0.0000 H   0  0  0  0  0  0  0  0  0  0  0  0
   14.6613    1.5600    0.0000 H   0  0  0  0  0  0  0  0  0  0  0  0
  1 24  1  0  0  0  0
  2  8  1  0  0  0  0
  2 13  1  0  0  0  0
  2 14  1  0  0  0  0
  3  9  1  0  0  0  0
  3 10  1  0  0  0  0
  3 31  1  0  0  0  0
  4 16  1  0  0  0  0
  4 17  2  0  0  0  0
  5 15  1  0  0  0  0
  5 18  2  0  0  0  0
  6 18  1  0  0  0  0
  6 20  1  0  0  0  0
  6 42  1  0  0  0  0
  7 19  1  0  0  0  0
  7 21  2  0  0  0  0
  8  9  1  0  0  0  0
  8 27  1  0  0  0  0
  8 28  1  0  0  0  0
  9 29  1  0  0  0  0
  9 30  1  0  0  0  0
 10 11  1  0  0  0  0
 10 16  2  0  0  0  0
 11 12  2  0  0  0  0
 11 32  1  0  0  0  0
 12 15  1  0  0  0  0
 12 17  1  0  0  0  0
 13 33  1  0  0  0  0
 13 34  1  0  0  0  0
 13 35  1  0  0  0  0
 14 36  1  0  0  0  0
 14 37  1  0  0  0  0
 14 38  1  0  0  0  0
 15 19  2  0  0  0  0
 16 39  1  0  0  0  0
 17 40  1  0  0  0  0
 18 21  1  0  0  0  0
 19 41  1  0  0  0  0
 20 22  2  0  0  0  0
 20 23  1  0  0  0  0
 21 43  1  0  0  0  0
 22 24  1  0  0  0  0
 22 44  1  0  0  0  0
 23 25  2  0  0  0  0
 23 45  1  0  0  0  0
 24 26  2  0  0  0  0
 25 26  1  0  0  0  0
 25 46  1  0  0  0  0
 26 47  1  0  0  0  0
M  END
> <PUBCHEM_COMPOUND_CID>
5330389

> <PUBCHEM_COMPOUND_CANONICALIZED>
1

> <PUBCHEM_CACTVS_COMPLEXITY>
409

> <PUBCHEM_CACTVS_HBOND_ACCEPTOR>
6

> <PUBCHEM_CACTVS_HBOND_DONOR>
2

> <PUBCHEM_CACTVS_ROTATABLE_BOND>
7

> <PUBCHEM_CACTVS_SUBSKEYS>
AAADceB7gAAEAAAAAAAAAAAAAAAAAAAAAAA8WIAAAAAAAAAB8AAAHAIQAAAADArBHiQ/8JPIEACgAzZnZACCgC0xFyAJ2KA4dpiIYOLB25GUIAhokALIyCcQAAAOAAAAAAIAAAAAAAAABAAAAAAAAAAAAA==

> <PUBCHEM_IUPAC_OPENEYE_NAME>
N-[5-[6-(3-chloroanilino)pyrazin-2-yl]-3-pyridyl]-N',N'-dimethyl-ethane-1,2-diamine

> <PUBCHEM_IUPAC_CAS_NAME>
N-[5-[6-(3-chloroanilino)-2-pyrazinyl]-3-pyridinyl]-N',N'-dimethylethane-1,2-diamine

> <PUBCHEM_IUPAC_NAME_MARKUP>
<I>N</I>-[5-[6-(3-chloroanilino)pyrazin-2-yl]pyridin-3-yl]-<I>N</I>&apos;,<I>N</I>&apos;-dimethylethane-1,2-diamine

> <PUBCHEM_IUPAC_NAME>
N-[5-[6-(3-chloroanilino)pyrazin-2-yl]pyridin-3-yl]-N',N'-dimethylethane-1,2-diamine

> <PUBCHEM_IUPAC_SYSTEMATIC_NAME>
N-[5-[6-[(3-chlorophenyl)amino]pyrazin-2-yl]pyridin-3-yl]-N',N'-dimethyl-ethane-1,2-diamine

> <PUBCHEM_IUPAC_TRADITIONAL_NAME>
2-[[5-[6-(3-chloroanilino)pyrazin-2-yl]-3-pyridyl]amino]ethyl-dimethyl-amine

> <PUBCHEM_IUPAC_INCHI>
InChI=1S/C19H21ClN6/c1-26(2)7-6-23-17-8-14(10-21-11-17)18-12-22-13-19(25-18)24-16-5-3-4-15(20)9-16/h3-5,8-13,23H,6-7H2,1-2H3,(H,24,25)

> <PUBCHEM_IUPAC_INCHIKEY>
XTEWWTLBXKFYCF-UHFFFAOYSA-N

> <PUBCHEM_XLOGP3_AA>
2.9

> <PUBCHEM_EXACT_MASS>
368.1516224

> <PUBCHEM_MOLECULAR_FORMULA>
C19H21ClN6

> <PUBCHEM_MOLECULAR_WEIGHT>
368.9

> <PUBCHEM_SMILES>
CN(C)CCNC1=CN=CC(=C1)C2=CN=CC(=N2)NC3=CC(=CC=C3)Cl

> <PUBCHEM_OPENEYE_CAN_SMILES>
CN(C)CCNC1=CN=CC(=C1)C2=CN=CC(=N2)NC3=CC(=CC=C3)Cl

> <PUBCHEM_OPENEYE_ISO_SMILES>
CN(C)CCNC1=CN=CC(=C1)C2=CN=CC(=N2)NC3=CC(=CC=C3)Cl

> <PUBCHEM_CACTVS_TPSA>
66

> <PUBCHEM_MONOISOTOPIC_WEIGHT>
368.1516224

> <PUBCHEM_TOTAL_CHARGE>
0

> <PUBCHEM_HEAVY_ATOM_COUNT>
26

> <PUBCHEM_ATOM_DEF_STEREO_COUNT>
0

> <PUBCHEM_ATOM_UDEF_STEREO_COUNT>
0

> <PUBCHEM_BOND_DEF_STEREO_COUNT>
0

> <PUBCHEM_BOND_UDEF_STEREO_COUNT>
0

> <PUBCHEM_ISOTOPIC_ATOM_COUNT>
0

> <PUBCHEM_COMPONENT_COUNT>
1

> <PUBCHEM_CACTVS_TAUTO_COUNT>
-1

> <PUBCHEM_COORDINATE_TYPE>
1
5
255

> <PUBCHEM_BONDANNOTATIONS>
10  11  8
10  16  8
11  12  8
12  17  8
15  19  8
18  21  8
20  22  8
20  23  8
22  24  8
23  25  8
24  26  8
25  26  8
4  16  8
4  17  8
5  15  8
5  18  8
7  19  8
7  21  8

$$$$
