49830729
  -OEChem-03202501132D

 53 55  0     1  0  0  0  0  0999 V2000
    3.7412    1.7196    0.0000 O   0  0  0  0  0  0  0  0  0  0  0  0
    6.0731    2.3444    0.0000 O   0  0  0  0  0  0  0  0  0  0  0  0
    4.3660   -0.6124    0.0000 N   0  0  0  0  0  0  0  0  0  0  0  0
    6.6980    0.0125    0.0000 N   0  0  0  0  0  0  0  0  0  0  0  0
    8.4300    0.0125    0.0000 N   0  0  0  0  0  0  0  0  0  0  0  0
   10.1621    0.0125    0.0000 N   0  0  0  0  0  0  0  0  0  0  0  0
    9.2960    1.5125    0.0000 N   0  0  0  0  0  0  0  0  0  0  0  0
    2.8660   -1.4784    0.0000 C   0  0  0  0  0  0  0  0  0  0  0  0
    3.3660   -0.6124    0.0000 C   0  0  3  0  0  0  0  0  0  0  0  0
    2.3660   -2.3444    0.0000 C   0  0  0  0  0  0  0  0  0  0  0  0
    2.0000   -0.9784    0.0000 C   0  0  0  0  0  0  0  0  0  0  0  0
    3.7320   -1.9784    0.0000 C   0  0  0  0  0  0  0  0  0  0  0  0
    2.8660    0.2537    0.0000 C   0  0  0  0  0  0  0  0  0  0  0  0
    4.8660    0.2537    0.0000 C   0  0  0  0  0  0  0  0  0  0  0  0
    5.8320    0.5125    0.0000 C   0  0  0  0  0  0  0  0  0  0  0  0
    4.6072    1.2196    0.0000 C   0  0  0  0  0  0  0  0  0  0  0  0
    5.5731    1.4784    0.0000 C   0  0  0  0  0  0  0  0  0  0  0  0
    7.5640    0.5125    0.0000 C   0  0  0  0  0  0  0  0  0  0  0  0
    7.5640    1.5125    0.0000 C   0  0  0  0  0  0  0  0  0  0  0  0
    9.2960    0.5125    0.0000 C   0  0  0  0  0  0  0  0  0  0  0  0
    8.4300    2.0125    0.0000 C   0  0  0  0  0  0  0  0  0  0  0  0
   11.0281    0.5125    0.0000 C   0  0  0  0  0  0  0  0  0  0  0  0
   11.8941    0.0125    0.0000 C   0  0  0  0  0  0  0  0  0  0  0  0
   12.7602    0.5125    0.0000 C   0  0  0  0  0  0  0  0  0  0  0  0
   11.0281    1.5125    0.0000 C   0  0  0  0  0  0  0  0  0  0  0  0
   12.7602    1.5125    0.0000 C   0  0  0  0  0  0  0  0  0  0  0  0
   11.8941    2.0125    0.0000 C   0  0  0  0  0  0  0  0  0  0  0  0
   13.6262    0.0125    0.0000 C   0  0  0  0  0  0  0  0  0  0  0  0
    3.6760   -1.1493    0.0000 H   0  0  0  0  0  0  0  0  0  0  0  0
    1.8291   -2.0344    0.0000 H   0  0  0  0  0  0  0  0  0  0  0  0
    2.0560   -2.8814    0.0000 H   0  0  0  0  0  0  0  0  0  0  0  0
    2.9030   -2.6544    0.0000 H   0  0  0  0  0  0  0  0  0  0  0  0
    2.3100   -0.4415    0.0000 H   0  0  0  0  0  0  0  0  0  0  0  0
    1.4631   -0.6684    0.0000 H   0  0  0  0  0  0  0  0  0  0  0  0
    1.6900   -1.5153    0.0000 H   0  0  0  0  0  0  0  0  0  0  0  0
    3.4220   -2.5153    0.0000 H   0  0  0  0  0  0  0  0  0  0  0  0
    4.2690   -2.2884    0.0000 H   0  0  0  0  0  0  0  0  0  0  0  0
    4.0420   -1.4415    0.0000 H   0  0  0  0  0  0  0  0  0  0  0  0
    4.6760   -1.1493    0.0000 H   0  0  0  0  0  0  0  0  0  0  0  0
    3.4030    0.5637    0.0000 H   0  0  0  0  0  0  0  0  0  0  0  0
    2.5560    0.7906    0.0000 H   0  0  0  0  0  0  0  0  0  0  0  0
    2.3291   -0.0563    0.0000 H   0  0  0  0  0  0  0  0  0  0  0  0
    6.6980   -0.6075    0.0000 H   0  0  0  0  0  0  0  0  0  0  0  0
    7.0271    1.8225    0.0000 H   0  0  0  0  0  0  0  0  0  0  0  0
    8.4300    2.6325    0.0000 H   0  0  0  0  0  0  0  0  0  0  0  0
   10.1621   -0.6075    0.0000 H   0  0  0  0  0  0  0  0  0  0  0  0
   11.8941   -0.6075    0.0000 H   0  0  0  0  0  0  0  0  0  0  0  0
   10.4912    1.8225    0.0000 H   0  0  0  0  0  0  0  0  0  0  0  0
   13.2971    1.8225    0.0000 H   0  0  0  0  0  0  0  0  0  0  0  0
   11.8941    2.6325    0.0000 H   0  0  0  0  0  0  0  0  0  0  0  0
   13.3162   -0.5245    0.0000 H   0  0  0  0  0  0  0  0  0  0  0  0
   14.1631   -0.2975    0.0000 H   0  0  0  0  0  0  0  0  0  0  0  0
   13.9362    0.5494    0.0000 H   0  0  0  0  0  0  0  0  0  0  0  0
  1 16  2  0  0  0  0
  2 17  2  0  0  0  0
  3  9  1  0  0  0  0
  3 14  1  0  0  0  0
  3 39  1  0  0  0  0
  4 15  1  0  0  0  0
  4 18  1  0  0  0  0
  4 43  1  0  0  0  0
  5 18  2  0  0  0  0
  5 20  1  0  0  0  0
  6 20  1  0  0  0  0
  6 22  1  0  0  0  0
  6 46  1  0  0  0  0
  7 20  2  0  0  0  0
  7 21  1  0  0  0  0
  8  9  1  0  0  0  0
  8 10  1  0  0  0  0
  8 11  1  0  0  0  0
  8 12  1  0  0  0  0
  9 13  1  0  0  0  0
  9 29  1  0  0  0  0
 10 30  1  0  0  0  0
 10 31  1  0  0  0  0
 10 32  1  0  0  0  0
 11 33  1  0  0  0  0
 11 34  1  0  0  0  0
 11 35  1  0  0  0  0
 12 36  1  0  0  0  0
 12 37  1  0  0  0  0
 12 38  1  0  0  0  0
 13 40  1  0  0  0  0
 13 41  1  0  0  0  0
 13 42  1  0  0  0  0
 14 15  2  0  0  0  0
 14 16  1  0  0  0  0
 15 17  1  0  0  0  0
 16 17  1  0  0  0  0
 18 19  1  0  0  0  0
 19 21  2  0  0  0  0
 19 44  1  0  0  0  0
 21 45  1  0  0  0  0
 22 23  1  0  0  0  0
 22 25  2  0  0  0  0
 23 24  2  0  0  0  0
 23 47  1  0  0  0  0
 24 26  1  0  0  0  0
 24 28  1  0  0  0  0
 25 27  1  0  0  0  0
 25 48  1  0  0  0  0
 26 27  2  0  0  0  0
 26 49  1  0  0  0  0
 27 50  1  0  0  0  0
 28 51  1  0  0  0  0
 28 52  1  0  0  0  0
 28 53  1  0  0  0  0
M  END
> <PUBCHEM_COMPOUND_CID>
49830729

> <PUBCHEM_COMPOUND_CANONICALIZED>
1

> <PUBCHEM_CACTVS_COMPLEXITY>
639

> <PUBCHEM_CACTVS_HBOND_ACCEPTOR>
7

> <PUBCHEM_CACTVS_HBOND_DONOR>
3

> <PUBCHEM_CACTVS_ROTATABLE_BOND>
7

> <PUBCHEM_CACTVS_SUBSKEYS>
AAADceB7sAAAAAAAAAAAAAAAAABAAAAAAAA8QAAAAAAAAAABwAAAHgAQAAAADizBmgQ/8JbIEACoArZ3ZACCgCkxAqAJ2KG4ZNiIKKrA2fGEJAhokALIyWcQgAAPAAAAQAAAAAAAAACAAAAAAAAAAAAAAA==

> <PUBCHEM_IUPAC_OPENEYE_NAME>
3-[[2-(3-methylanilino)pyrimidin-4-yl]amino]-4-(1,2,2-trimethylpropylamino)cyclobut-3-ene-1,2-dione

> <PUBCHEM_IUPAC_CAS_NAME>
3-(3,3-dimethylbutan-2-ylamino)-4-[[2-(3-methylanilino)-4-pyrimidinyl]amino]cyclobut-3-ene-1,2-dione

> <PUBCHEM_IUPAC_NAME_MARKUP>
3-(3,3-dimethylbutan-2-ylamino)-4-[[2-(3-methylanilino)pyrimidin-4-yl]amino]cyclobut-3-ene-1,2-dione

> <PUBCHEM_IUPAC_NAME>
3-(3,3-dimethylbutan-2-ylamino)-4-[[2-(3-methylanilino)pyrimidin-4-yl]amino]cyclobut-3-ene-1,2-dione

> <PUBCHEM_IUPAC_SYSTEMATIC_NAME>
3-(3,3-dimethylbutan-2-ylamino)-4-[[2-[(3-methylphenyl)amino]pyrimidin-4-yl]amino]cyclobut-3-ene-1,2-dione

> <PUBCHEM_IUPAC_TRADITIONAL_NAME>
3-[[2-(m-toluidino)pyrimidin-4-yl]amino]-4-(1,2,2-trimethylpropylamino)cyclobut-3-ene-1,2-quinone

> <PUBCHEM_IUPAC_INCHI>
InChI=1S/C21H25N5O2/c1-12-7-6-8-14(11-12)24-20-22-10-9-15(26-20)25-17-16(18(27)19(17)28)23-13(2)21(3,4)5/h6-11,13,23H,1-5H3,(H2,22,24,25,26)

> <PUBCHEM_IUPAC_INCHIKEY>
CKVWQORGCCEYHS-UHFFFAOYSA-N

> <PUBCHEM_XLOGP3_AA>
4.5

> <PUBCHEM_EXACT_MASS>
379.20082506

> <PUBCHEM_MOLECULAR_FORMULA>
C21H25N5O2

> <PUBCHEM_MOLECULAR_WEIGHT>
379.5

> <PUBCHEM_SMILES>
CC1=CC(=CC=C1)NC2=NC=CC(=N2)NC3=C(C(=O)C3=O)NC(C)C(C)(C)C

> <PUBCHEM_OPENEYE_CAN_SMILES>
CC1=CC(=CC=C1)NC2=NC=CC(=N2)NC3=C(C(=O)C3=O)NC(C)C(C)(C)C

> <PUBCHEM_OPENEYE_ISO_SMILES>
CC1=CC(=CC=C1)NC2=NC=CC(=N2)NC3=C(C(=O)C3=O)NC(C)C(C)(C)C

> <PUBCHEM_CACTVS_TPSA>
96

> <PUBCHEM_MONOISOTOPIC_WEIGHT>
379.20082506

> <PUBCHEM_TOTAL_CHARGE>
0

> <PUBCHEM_HEAVY_ATOM_COUNT>
28

> <PUBCHEM_ATOM_DEF_STEREO_COUNT>
0

> <PUBCHEM_ATOM_UDEF_STEREO_COUNT>
1

> <PUBCHEM_BOND_DEF_STEREO_COUNT>
0

> <PUBCHEM_BOND_UDEF_STEREO_COUNT>
0

> <PUBCHEM_ISOTOPIC_ATOM_COUNT>
0

> <PUBCHEM_COMPONENT_COUNT>
1

> <PUBCHEM_CACTVS_TAUTO_COUNT>
-1

> <PUBCHEM_COORDINATE_TYPE>
1
5
255

> <PUBCHEM_BONDANNOTATIONS>
14  15  8
14  16  8
15  17  8
16  17  8
18  19  8
19  21  8
22  23  8
22  25  8
23  24  8
24  26  8
25  27  8
26  27  8
5  18  8
5  20  8
7  20  8
7  21  8
9  13  3

$$$$
