44299145
  -OEChem-03202505192D

 63 70  0     1  0  0  0  0  0999 V2000
    7.2752    2.3172    0.0000 O   0  0  0  0  0  0  0  0  0  0  0  0
    9.0770   -1.4246    0.0000 O   0  0  0  0  0  0  0  0  0  0  0  0
    2.3325   -1.1645    0.0000 O   0  0  0  0  0  0  0  0  0  0  0  0
    2.0000    0.6180    0.0000 O   0  0  0  0  0  0  0  0  0  0  0  0
    6.6772   -0.6474    0.0000 N   0  0  0  0  0  0  0  0  0  0  0  0
    5.9931    1.2320    0.0000 N   0  0  0  0  0  0  0  0  0  0  0  0
   10.7677   -0.0555    0.0000 N   0  0  0  0  0  0  0  0  0  0  0  0
    7.7530    0.3687    0.0000 C   0  0  2  0  0  0  0  0  0  0  0  0
    9.0246   -0.4260    0.0000 C   0  0  1  0  0  0  0  0  0  0  0  0
    9.8018    0.2034    0.0000 C   0  0  1  0  0  0  0  0  0  0  0  0
    8.0118    1.3346    0.0000 C   0  0  3  0  0  0  0  0  0  0  0  0
    9.4434    1.1369    0.0000 C   0  0  0  0  0  0  0  0  0  0  0  0
    5.6924   -0.4737    0.0000 C   0  0  0  0  0  0  0  0  0  0  0  0
    5.3503    0.4660    0.0000 C   0  0  0  0  0  0  0  0  0  0  0  0
    5.0352   -1.2819    0.0000 C   0  0  0  0  0  0  0  0  0  0  0  0
    4.3274    0.6626    0.0000 C   0  0  0  0  0  0  0  0  0  0  0  0
    7.4941   -0.5972    0.0000 C   0  0  0  0  0  0  0  0  0  0  0  0
    6.6502   -1.6408    0.0000 C   0  0  0  0  0  0  0  0  0  0  0  0
    5.3339    1.9757    0.0000 C   0  0  0  0  0  0  0  0  0  0  0  0
    5.7232   -1.9990    0.0000 C   0  0  0  0  0  0  0  0  0  0  0  0
    4.0080   -1.1089    0.0000 C   0  0  0  0  0  0  0  0  0  0  0  0
    4.3935    1.6543    0.0000 C   0  0  0  0  0  0  0  0  0  0  0  0
    3.6518   -0.1301    0.0000 C   0  0  0  0  0  0  0  0  0  0  0  0
    3.1904   -1.7443    0.0000 C   0  0  0  0  0  0  0  0  0  0  0  0
    7.4661   -2.2780    0.0000 C   0  0  0  0  0  0  0  0  0  0  0  0
    5.5493    2.9882    0.0000 C   0  0  0  0  0  0  0  0  0  0  0  0
   11.4748    0.6516    0.0000 C   0  0  0  0  0  0  0  0  0  0  0  0
   11.0265   -1.0214    0.0000 C   0  0  0  0  0  0  0  0  0  0  0  0
    5.5478   -3.0193    0.0000 C   0  0  0  0  0  0  0  0  0  0  0  0
    2.6170   -0.1689    0.0000 C   0  0  0  0  0  0  0  0  0  0  0  0
    3.6033    2.3231    0.0000 C   0  0  0  0  0  0  0  0  0  0  0  0
    9.9680   -1.8786    0.0000 C   0  0  0  0  0  0  0  0  0  0  0  0
    7.3143   -3.3020    0.0000 C   0  0  0  0  0  0  0  0  0  0  0  0
    6.3487   -3.6751    0.0000 C   0  0  0  0  0  0  0  0  0  0  0  0
    4.7748    3.6751    0.0000 C   0  0  0  0  0  0  0  0  0  0  0  0
    3.7953    3.3403    0.0000 C   0  0  0  0  0  0  0  0  0  0  0  0
    9.5910   -0.6781    0.0000 H   0  0  0  0  0  0  0  0  0  0  0  0
   10.2167    0.6641    0.0000 H   0  0  0  0  0  0  0  0  0  0  0  0
    7.9850    0.7152    0.0000 H   0  0  0  0  0  0  0  0  0  0  0  0
   10.0512    1.2593    0.0000 H   0  0  0  0  0  0  0  0  0  0  0  0
    9.4244    1.7566    0.0000 H   0  0  0  0  0  0  0  0  0  0  0  0
    6.8953   -0.4368    0.0000 H   0  0  0  0  0  0  0  0  0  0  0  0
    7.3337   -1.1961    0.0000 H   0  0  0  0  0  0  0  0  0  0  0  0
    8.0930   -0.7577    0.0000 H   0  0  0  0  0  0  0  0  0  0  0  0
    2.7912   -2.2187    0.0000 H   0  0  0  0  0  0  0  0  0  0  0  0
    3.6202   -2.1912    0.0000 H   0  0  0  0  0  0  0  0  0  0  0  0
    8.0418   -2.0478    0.0000 H   0  0  0  0  0  0  0  0  0  0  0  0
    6.1383    3.1820    0.0000 H   0  0  0  0  0  0  0  0  0  0  0  0
   11.9132    0.2132    0.0000 H   0  0  0  0  0  0  0  0  0  0  0  0
   11.9132    1.0900    0.0000 H   0  0  0  0  0  0  0  0  0  0  0  0
   11.0364    1.0900    0.0000 H   0  0  0  0  0  0  0  0  0  0  0  0
   10.4277   -1.1818    0.0000 H   0  0  0  0  0  0  0  0  0  0  0  0
   11.1870   -1.6203    0.0000 H   0  0  0  0  0  0  0  0  0  0  0  0
   11.6254   -0.8609    0.0000 H   0  0  0  0  0  0  0  0  0  0  0  0
    4.9669   -3.2360    0.0000 H   0  0  0  0  0  0  0  0  0  0  0  0
    3.0190    2.1157    0.0000 H   0  0  0  0  0  0  0  0  0  0  0  0
    9.6865   -2.4310    0.0000 H   0  0  0  0  0  0  0  0  0  0  0  0
   10.5204   -2.1600    0.0000 H   0  0  0  0  0  0  0  0  0  0  0  0
   10.2495   -1.3262    0.0000 H   0  0  0  0  0  0  0  0  0  0  0  0
    7.7985   -3.6892    0.0000 H   0  0  0  0  0  0  0  0  0  0  0  0
    6.2507   -4.2873    0.0000 H   0  0  0  0  0  0  0  0  0  0  0  0
    4.8969    4.2830    0.0000 H   0  0  0  0  0  0  0  0  0  0  0  0
    3.3267    3.7463    0.0000 H   0  0  0  0  0  0  0  0  0  0  0  0
  1  8  1  0  0  0  0
  1 11  1  0  0  0  0
  9  2  1  1  0  0  0
  2 32  1  0  0  0  0
  3 24  1  0  0  0  0
  3 30  1  0  0  0  0
  4 30  2  0  0  0  0
  5  8  1  0  0  0  0
  5 13  1  0  0  0  0
  5 18  1  0  0  0  0
  6 11  1  0  0  0  0
  6 14  1  0  0  0  0
  6 19  1  0  0  0  0
 10  7  1  1  0  0  0
  7 27  1  0  0  0  0
  7 28  1  0  0  0  0
  8  9  1  0  0  0  0
  8 17  1  6  0  0  0
  9 10  1  0  0  0  0
  9 37  1  0  0  0  0
 10 12  1  0  0  0  0
 10 38  1  0  0  0  0
 11 12  1  0  0  0  0
 11 39  1  0  0  0  0
 12 40  1  0  0  0  0
 12 41  1  0  0  0  0
 13 14  2  0  0  0  0
 13 15  1  0  0  0  0
 14 16  1  0  0  0  0
 15 20  1  0  0  0  0
 15 21  2  0  0  0  0
 16 22  1  0  0  0  0
 16 23  2  0  0  0  0
 17 42  1  0  0  0  0
 17 43  1  0  0  0  0
 17 44  1  0  0  0  0
 18 20  1  0  0  0  0
 18 25  2  0  0  0  0
 19 22  1  0  0  0  0
 19 26  2  0  0  0  0
 20 29  2  0  0  0  0
 21 23  1  0  0  0  0
 21 24  1  0  0  0  0
 22 31  2  0  0  0  0
 23 30  1  0  0  0  0
 24 45  1  0  0  0  0
 24 46  1  0  0  0  0
 25 33  1  0  0  0  0
 25 47  1  0  0  0  0
 26 35  1  0  0  0  0
 26 48  1  0  0  0  0
 27 49  1  0  0  0  0
 27 50  1  0  0  0  0
 27 51  1  0  0  0  0
 28 52  1  0  0  0  0
 28 53  1  0  0  0  0
 28 54  1  0  0  0  0
 29 34  1  0  0  0  0
 29 55  1  0  0  0  0
 31 36  1  0  0  0  0
 31 56  1  0  0  0  0
 32 57  1  0  0  0  0
 32 58  1  0  0  0  0
 32 59  1  0  0  0  0
 33 34  2  0  0  0  0
 33 60  1  0  0  0  0
 34 61  1  0  0  0  0
 35 36  2  0  0  0  0
 35 62  1  0  0  0  0
 36 63  1  0  0  0  0
M  END
> <PUBCHEM_COMPOUND_CID>
44299145

> <PUBCHEM_COMPOUND_CANONICALIZED>
1

> <PUBCHEM_CACTVS_COMPLEXITY>
930

> <PUBCHEM_CACTVS_HBOND_ACCEPTOR>
5

> <PUBCHEM_CACTVS_HBOND_DONOR>
0

> <PUBCHEM_CACTVS_ROTATABLE_BOND>
2

> <PUBCHEM_CACTVS_SUBSKEYS>
AAADceB7OAAAAAAAAAAAAAAAAAAAAWLEgAA0YMEABYAAAFix/gAAHgAAAAAADDzhngYyyPMMFACoAyTyTACCgCQlEiAI2CE4fNgLZvLA9ZmfMQhmwAHa6Qf+2fOeyAACQAASACCQAASAACQAQAAAAAAAAA==

> <PUBCHEM_IUPAC_OPENEYE_NAME>
(2S,3R,4R)-4-(dimethylamino)-3-methoxy-2-methyl-17,29-dioxa-1,7-diazaoctacyclo[12.12.2.12,6.07,28.08,13.015,19.020,27.021,26]nonacosa-8,10,12,14,19,21,23,25,27-nonaen-16-one

> <PUBCHEM_IUPAC_CAS_NAME>
(2S,3R,4R)-4-(dimethylamino)-3-methoxy-2-methyl-17,29-dioxa-1,7-diazaoctacyclo[12.12.2.12,6.07,28.08,13.015,19.020,27.021,26]nonacosa-8,10,12,14,19,21,23,25,27-nonaen-16-one

> <PUBCHEM_IUPAC_NAME_MARKUP>
(2<I>S</I>,3<I>R</I>,4<I>R</I>)-4-(dimethylamino)-3-methoxy-2-methyl-17,29-dioxa-1,7-diazaoctacyclo[12.12.2.1<SUP>2,6</SUP>.0<SUP>7,28</SUP>.0<SUP>8,13</SUP>.0<SUP>15,19</SUP>.0<SUP>20,27</SUP>.0<SUP>21,26</SUP>]nonacosa-8,10,12,14,19,21,23,25,27-nonaen-16-one

> <PUBCHEM_IUPAC_NAME>
(2S,3R,4R)-4-(dimethylamino)-3-methoxy-2-methyl-17,29-dioxa-1,7-diazaoctacyclo[12.12.2.12,6.07,28.08,13.015,19.020,27.021,26]nonacosa-8,10,12,14,19,21,23,25,27-nonaen-16-one

> <PUBCHEM_IUPAC_SYSTEMATIC_NAME>
(2S,3R,4R)-4-(dimethylamino)-3-methoxy-2-methyl-17,29-dioxa-1,7-diazaoctacyclo[12.12.2.12,6.07,28.08,13.015,19.020,27.021,26]nonacosa-8,10,12,14,19,21,23,25,27-nonaen-16-one

> <PUBCHEM_IUPAC_TRADITIONAL_NAME>
(2S,3R,4R)-4-(dimethylamino)-3-methoxy-2-methyl-17,29-dioxa-1,7-diazaoctacyclo[12.12.2.12,6.07,28.08,13.015,19.020,27.021,26]nonacosa-8,10,12,14,19,21,23,25,27-nonaen-16-one

> <PUBCHEM_IUPAC_INCHI>
InChI=1S/C29H27N3O4/c1-29-27(34-4)20(30(2)3)13-21(36-29)31-18-11-7-5-9-15(18)23-24-17(14-35-28(24)33)22-16-10-6-8-12-19(16)32(29)26(22)25(23)31/h5-12,20-21,27H,13-14H2,1-4H3/t20-,21?,27-,29+/m1/s1

> <PUBCHEM_IUPAC_INCHIKEY>
KNFANUJEOPLLIS-OWQSDEKESA-N

> <PUBCHEM_XLOGP3_AA>
4.3

> <PUBCHEM_EXACT_MASS>
481.20015635

> <PUBCHEM_MOLECULAR_FORMULA>
C29H27N3O4

> <PUBCHEM_MOLECULAR_WEIGHT>
481.5

> <PUBCHEM_SMILES>
C[C@@]12[C@@H]([C@@H](CC(O1)N3C4=CC=CC=C4C5=C6C(=C7C8=CC=CC=C8N2C7=C53)COC6=O)N(C)C)OC

> <PUBCHEM_OPENEYE_CAN_SMILES>
CC12C(C(CC(O1)N3C4=CC=CC=C4C5=C6C(=C7C8=CC=CC=C8N2C7=C53)COC6=O)N(C)C)OC

> <PUBCHEM_OPENEYE_ISO_SMILES>
C[C@@]12[C@@H]([C@@H](CC(O1)N3C4=CC=CC=C4C5=C6C(=C7C8=CC=CC=C8N2C7=C53)COC6=O)N(C)C)OC

> <PUBCHEM_CACTVS_TPSA>
57.9

> <PUBCHEM_MONOISOTOPIC_WEIGHT>
481.20015635

> <PUBCHEM_TOTAL_CHARGE>
0

> <PUBCHEM_HEAVY_ATOM_COUNT>
36

> <PUBCHEM_ATOM_DEF_STEREO_COUNT>
3

> <PUBCHEM_ATOM_UDEF_STEREO_COUNT>
1

> <PUBCHEM_BOND_DEF_STEREO_COUNT>
0

> <PUBCHEM_BOND_UDEF_STEREO_COUNT>
0

> <PUBCHEM_ISOTOPIC_ATOM_COUNT>
0

> <PUBCHEM_COMPONENT_COUNT>
1

> <PUBCHEM_CACTVS_TAUTO_COUNT>
-1

> <PUBCHEM_COORDINATE_TYPE>
1
5
255

> <PUBCHEM_BONDANNOTATIONS>
11  12  3
13  14  8
13  15  8
14  16  8
15  20  8
15  21  8
16  22  8
16  23  8
18  20  8
18  25  8
19  22  8
19  26  8
9  2  5
20  29  8
21  23  8
22  31  8
25  33  8
26  35  8
29  34  8
31  36  8
33  34  8
35  36  8
5  13  8
5  18  8
6  14  8
6  19  8
10  7  5
8  17  6

$$$$
